{
    "ID": "1",
    "Name": "METHANE",
    "Synonyms": "METHYL HYDRIDE, MARSH GAS",
    "CAS No.": "74-82-8",
    "Formula": "CH4",
    "Molecular Wt. (WT)": "1.60426E+01",
    "Normal Boiling Point Temp. (TB)": "1.11670E+02 K",
    "Freezing Point Temp. (TF)": "9.06900E+01 K",
    "Triple Point Temp. (TT)": "9.06940E+01 K",
    "Triple Point Press. (PT)": "1.16960E+01 kPa",
    "Critical Temperature. (TC)": "1.90564E+02 K",
    "Critical Pressure (PC)": "4.59900E+03 kPa",
    "Critical Volume (VC)": "9.86000E-02 m^3/kg-mol",
    "Critical Compressibility (ZC)": "2.86196E-01",
    "Accentric Factor (ACCF)": "1.10000E-02",
    "Vapor Pressure": {
        "Equation Name": "KDB Correlation Equation",
        "Equation": "ln(Pvp) = A*ln(T) + B/T + C + D*T^2 where Pvp in kPa, T in K",
        "Coefficient A": "-2.374836E+00",
        "Coefficient B": "-1.238032E+03",
        "Coefficient C": "2.664952E+01",
        "Coefficient D": "2.048824E-05",
        "Coefficient E": NaN,
        "Coefficient F": NaN,
        "Coefficient G": NaN,
        "T range, from": "90.67 K",
        "T range, to": "190.58 K"
    },
    "Heat Capacity (Ideal Gas)": {
        "Equation Name": "Polynomial Equation",
        "Equation": "Cp = A + B*T + C*T^2 + D*T^3 + E*T^4  where Cp in kJ/kg-mol , T in K",
        "Coefficient A": "3.615454E+01",
        "Coefficient B": "-5.111832E-02",
        "Coefficient C": "2.214981E-04",
        "Coefficient D": "-1.824321E-07",
        "Coefficient E": "4.898962E-11",
        "Coefficient F": NaN,
        "Coefficient G": NaN,
        "T range, from": NaN,
        "T range, to": NaN
    },
    "Heat Capacity (Liquid)": {
        "Equation Name": "Polynomial Equation",
        "Equation": "Cp = A + B*T + C*T^2 + D*T^3  where T in K and Cp in kJ/kg-mol.K",
        "Coefficient A": "82.56036",
        "Coefficient B": "-.6933727",
        "Coefficient C": "4.832801E-03",
        "Coefficient D": "-7.202217E-06",
        "Coefficient E": NaN,
        "Coefficient F": NaN,
        "Coefficient G": NaN,
        "T range, from": "90.54999 K",
        "T range, to": "163.15 K"
    },
    "Viscosity (Gas, Low P)": {
        "Equation Name": "Polynomial Equation",
        "Equation": "VISG = A + B*T + C*T^2 where T in K and VISG in cP",
        "Coefficient A": ".001596",
        "Coefficient B": "3.439E-05",
        "Coefficient C": "-8.14E-09",
        "Coefficient D": "0",
        "Coefficient E": NaN,
        "Coefficient F": NaN,
        "Coefficient G": NaN,
        "T range, from": "193.15 K",
        "T range, to": "1273.15 K"
    },
    "Viscosity (Liquid)": {
        "Equation Name": "Quasipolynomial Equation",
        "Equation": "ln (VISL) = A + B/T + C*T + D*T^2  where T in K and VISL in cP.",
        "Coefficient A": "-26.87",
        "Coefficient B": "1150",
        "Coefficient C": ".1871",
        "Coefficient D": "-.0005211",
        "Coefficient E": NaN,
        "Coefficient F": NaN,
        "Coefficient G": NaN,
        "T range, from": "93.14999 K",
        "T range, to": "189.15 K"
    },
    "Themal Conductivity (Gas, Low P)": {
        "Equation Name": "Polynomial Equation",
        "Equation": "THG = A + B*T + C*T^2 + D*T^3  where T in K and THG in W/m.K",
        "Coefficient A": "-.001869",
        "Coefficient B": "8.727E-05",
        "Coefficient C": "1.179E-07",
        "Coefficient D": "-3.614E-11",
        "Coefficient E": NaN,
        "Coefficient F": NaN,
        "Coefficient G": NaN,
        "T range, from": "273 K",
        "T range, to": "1270 K"
    },
    "Themal Conductivity (Liquid)": {
        "Equation Name": "Polynomial Equation",
        "Equation": "THL = A + B*T + C*T^2 + D*T^3  where T in K and THL in W/m.K",
        "Coefficient A": ".3026",
        "Coefficient B": "-.0006047",
        "Coefficient C": "-3.197E-06",
        "Coefficient D": "0",
        "Coefficient E": NaN,
        "Coefficient F": NaN,
        "Coefficient G": NaN,
        "T range, from": "90 K",
        "T range, to": "183 K"
    },
    "Surface Tension": NaN,
    "Partial Molar Volume (VOLP)": NaN,
    "Solubility Parameters (SOLP)": "1.161834E+04 (J/cm^3)^0.5",
    "SRK accentric factor (WSRK)": "7.400000E-03",
    "COSTALD Characteristic Volume (VSTAR)": "9.940001E-02 m^3/kg-mol",
    "Rackett parameter (ZRA)": "2.892000E-01",
    "Aniline Point (ANP)": NaN,
    "H(formation,ideal gas)at 25 C": "-7.490000E+04 kJ/kg-mol",
    "G(formation,ideal gas) at 25 C": "-5.087000E+04 kJ/kg-mol",
    "Heat of Combustion, Gross form (HCB1)": NaN,
    "Heat of Combustion, Net form (HCB2)": NaN,
    "Van der Waals Volume (VDWV)": NaN,
    "Van der Waals Area (VDWA)": NaN,
    "UNIQUAC Ri Parameter (RI)": "1.129200E+00",
    "UNIQUAC Qi Parameter (QI)": "1.124000E+00",
    "Dipole Moment (DM)": "0.000000E+00 debye",
    "Radius of Gyration (GYRAD)": "1.123000E+00",
    "Liquid Density (DENL)": "2.649196E-02 g-mol/cm^3",
    "Temperature of DENL (TDENL)": "1.120000E+02 K",
    "Heat of Vaporizaiton (HVAP)": "8.180000E+03 kJ/kg-mol",
    "Temperature of HVAP (THVAP)": "1.116000E+02 K",
    "Surface Tension (SRF)": "1.633000E+01 dyn/cm",
    "Temperature of SRF (TSRF)": "1.000000E+02 K",
    "Dielectric Constant (DIEL)": NaN,
    "Temperature of DIEL (TDIEL)": NaN,
    "Refractive Index (RFI)": NaN,
    "Temperature of RFI (TRFI)": NaN,
    "Lower Flammability Limit(FLL)": "5.000000E+00 % in Air",
    "Upper Flammability Limit(FLU)": "1.500000E+01 % in Air",
    "Flash Point (Open Cup Method)": NaN,
    "Flash Point (Closed Cup Method)": NaN,
    "Autoignition Temperature (AIGT)": "8.131500E+02 K",
    "NFPA Rating (Health)": "1",
    "NFPA Rating (Fire)": "4",
    "NFPA Rating (Safety)": NaN,
    "Class": "Paraffinic Hydrocarbons",
    "Subclass": "n-Alkanes",
    "SMILES": "C"
}