{
    "ID": "10",
    "Name": "N-DECANE",
    "Synonyms": "DECANE",
    "CAS No.": "124-18-5",
    "Formula": "C10H22",
    "Molecular Wt. (WT)": "1.42284E+02",
    "Normal Boiling Point Temp. (TB)": "4.47300E+02 K",
    "Freezing Point Temp. (TF)": "2.43400E+02 K",
    "Triple Point Temp. (TT)": "2.43500E+02 K",
    "Triple Point Press. (PT)": NaN,
    "Critical Temperature. (TC)": "6.17700E+02 K",
    "Critical Pressure (PC)": "2.11000E+03 kPa",
    "Critical Volume (VC)": "6.24000E-01 m^3/kg-mol",
    "Critical Compressibility (ZC)": "2.56361E-01",
    "Accentric Factor (ACCF)": "4.89000E-01",
    "Vapor Pressure": {
        "Equation Name": "KDB Correlation Equation",
        "Equation": "ln(Pvp) = A*ln(T) + B/T + C + D*T^2 where Pvp in kPa, T in K",
        "Coefficient A": "-7.768817E+00",
        "Coefficient B": "-8.163335E+03",
        "Coefficient C": "6.976469E+01",
        "Coefficient D": "2.620333E-06",
        "Coefficient E": NaN,
        "Coefficient F": NaN,
        "Coefficient G": NaN,
        "T range, from": "243.49 K",
        "T range, to": "618.45 K"
    },
    "Heat Capacity (Ideal Gas)": {
        "Equation Name": "Polynomial Equation",
        "Equation": "Cp = A + B*T + C*T^2 + D*T^3 + E*T^4  where Cp in kJ/kg-mol , T in K",
        "Coefficient A": "1.211884E+02",
        "Coefficient B": "-7.588018E-02",
        "Coefficient C": "2.358630E-03",
        "Coefficient D": "-3.206904E-06",
        "Coefficient E": "1.344246E-09",
        "Coefficient F": NaN,
        "Coefficient G": NaN,
        "T range, from": NaN,
        "T range, to": NaN
    },
    "Heat Capacity (Liquid)": NaN,
    "Viscosity (Gas, Low P)": NaN,
    "Viscosity (Liquid)": {
        "Equation Name": "Andrade Equation",
        "Equation": "ln (VISL) = A + B/ T  where T in K and VISL in cP.",
        "Coefficient A": "-4.46",
        "Coefficient B": "1286",
        "Coefficient C": "0",
        "Coefficient D": "0",
        "Coefficient E": NaN,
        "Coefficient F": NaN,
        "Coefficient G": NaN,
        "T range, from": "248.15 K",
        "T range, to": "448.15 K"
    },
    "Themal Conductivity (Gas, Low P)": NaN,
    "Themal Conductivity (Liquid)": NaN,
    "Surface Tension": NaN,
    "Partial Molar Volume (VOLP)": "1.959200E-01 m^3/kg-mol",
    "Solubility Parameters (SOLP)": "1.578908E+04 (J/cm^3)^0.5",
    "SRK accentric factor (WSRK)": "4.916000E-01",
    "COSTALD Characteristic Volume (VSTAR)": "6.192000E-01 m^3/kg-mol",
    "Rackett parameter (ZRA)": "2.507000E-01",
    "Aniline Point (ANP)": "3.501500E+02 K",
    "H(formation,ideal gas)at 25 C": "-2.498000E+05 kJ/kg-mol",
    "G(formation,ideal gas) at 25 C": "3.324000E+04 kJ/kg-mol",
    "Heat of Combustion, Gross form (HCB1)": "6.778332E+06 kJ/kg-mol",
    "Heat of Combustion, Net form (HCB2)": "6.294201E+06 kJ/kg-mol",
    "Van der Waals Volume (VDWV)": NaN,
    "Van der Waals Area (VDWA)": NaN,
    "UNIQUAC Ri Parameter (RI)": "7.197400E+00",
    "UNIQUAC Qi Parameter (QI)": "6.016000E+00",
    "Dipole Moment (DM)": "0.000000E+00 debye",
    "Radius of Gyration (GYRAD)": "5.539000E+00",
    "Liquid Density (DENL)": "5.130591E-03 g-mol/cm^3",
    "Temperature of DENL (TDENL)": "2.930000E+02 K",
    "Heat of Vaporizaiton (HVAP)": "3.927900E+04 kJ/kg-mol",
    "Temperature of HVAP (THVAP)": "4.469000E+02 K",
    "Surface Tension (SRF)": "2.383000E+01 dyn/cm",
    "Temperature of SRF (TSRF)": "2.932000E+02 K",
    "Dielectric Constant (DIEL)": NaN,
    "Temperature of DIEL (TDIEL)": NaN,
    "Refractive Index (RFI)": "1.409670E+00",
    "Temperature of RFI (TRFI)": "2.981500E+02 K",
    "Lower Flammability Limit(FLL)": NaN,
    "Upper Flammability Limit(FLU)": NaN,
    "Flash Point (Open Cup Method)": NaN,
    "Flash Point (Closed Cup Method)": NaN,
    "Autoignition Temperature (AIGT)": NaN,
    "NFPA Rating (Health)": NaN,
    "NFPA Rating (Fire)": 2.0,
    "NFPA Rating (Safety)": NaN,
    "Class": "Paraffinic Hydrocarbons",
    "Subclass": "n-Alkanes",
    "SMILES": "CCCCCCCCCC"
}