{
    "ID": "1003",
    "Name": "DIETHYL ETHER",
    "Synonyms": "ANAESTHETIC ETHER, DIETHYL OXIDE, ETHYL ETHER",
    "CAS No.": "60-29-7",
    "Formula": "C4H10O",
    "Molecular Wt. (WT)": "7.41224E+01",
    "Normal Boiling Point Temp. (TB)": "3.07600E+02 K",
    "Freezing Point Temp. (TF)": "1.56800E+02 K",
    "Triple Point Temp. (TT)": "1.56920E+02 K",
    "Triple Point Press. (PT)": NaN,
    "Critical Temperature. (TC)": "4.66740E+02 K",
    "Critical Pressure (PC)": "3.63800E+03 kPa",
    "Critical Volume (VC)": "2.80000E-01 m^3/kg-mol",
    "Critical Compressibility (ZC)": "2.62488E-01",
    "Accentric Factor (ACCF)": "2.81000E-01",
    "Vapor Pressure": {
        "Equation Name": "KDB Correlation Equation",
        "Equation": "ln(Pvp) = A*ln(T) + B/T + C + D*T^2 where Pvp in kPa, T in K",
        "Coefficient A": "-1.243790E+01",
        "Coefficient B": "-6.340514E+03",
        "Coefficient C": "9.514704E+01",
        "Coefficient D": "1.412918E-05",
        "Coefficient E": NaN,
        "Coefficient F": NaN,
        "Coefficient G": NaN,
        "T range, from": "156.85 K",
        "T range, to": "466.70 K"
    },
    "Heat Capacity (Ideal Gas)": {
        "Equation Name": "Polynomial Equation",
        "Equation": "Cp = A + B*T + C*T^2 + D*T^3 + E*T^4  where Cp in kJ/kg-mol , T in K",
        "Coefficient A": "3.925223E+01",
        "Coefficient B": "2.466860E-01",
        "Coefficient C": "1.054841E-04",
        "Coefficient D": "-2.084629E-07",
        "Coefficient E": "6.952845E-11",
        "Coefficient F": NaN,
        "Coefficient G": NaN,
        "T range, from": NaN,
        "T range, to": NaN
    },
    "Heat Capacity (Liquid)": NaN,
    "Viscosity (Gas, Low P)": NaN,
    "Viscosity (Liquid)": {
        "Equation Name": "Andrade Equation",
        "Equation": "ln (VISL) = A + B/ T  where T in K and VISL in cP.",
        "Coefficient A": "-4.267",
        "Coefficient B": "813.1",
        "Coefficient C": "0",
        "Coefficient D": "0",
        "Coefficient E": NaN,
        "Coefficient F": NaN,
        "Coefficient G": NaN,
        "T range, from": "193.15 K",
        "T range, to": "373.15 K"
    },
    "Themal Conductivity (Gas, Low P)": NaN,
    "Themal Conductivity (Liquid)": NaN,
    "Surface Tension": NaN,
    "Partial Molar Volume (VOLP)": "1.047500E-01 m^3/kg-mol",
    "Solubility Parameters (SOLP)": "1.537180E+04 (J/cm^3)^0.5",
    "SRK accentric factor (WSRK)": NaN,
    "COSTALD Characteristic Volume (VSTAR)": NaN,
    "Rackett parameter (ZRA)": "2.650000E-01",
    "Aniline Point (ANP)": NaN,
    "H(formation,ideal gas)at 25 C": "-2.524000E+05 kJ/kg-mol",
    "G(formation,ideal gas) at 25 C": "-1.224000E+05 kJ/kg-mol",
    "Heat of Combustion, Gross form (HCB1)": NaN,
    "Heat of Combustion, Net form (HCB2)": NaN,
    "Van der Waals Volume (VDWV)": NaN,
    "Van der Waals Area (VDWA)": NaN,
    "UNIQUAC Ri Parameter (RI)": "3.394900E+00",
    "UNIQUAC Qi Parameter (QI)": "3.016000E+00",
    "Dipole Moment (DM)": "1.300000E+00 debye",
    "Radius of Gyration (GYRAD)": "3.140000E+00",
    "Liquid Density (DENL)": "9.619225E-03 g-mol/cm^3",
    "Temperature of DENL (TDENL)": "2.930000E+02 K",
    "Heat of Vaporizaiton (HVAP)": "2.669400E+04 kJ/kg-mol",
    "Temperature of HVAP (THVAP)": "3.077000E+02 K",
    "Surface Tension (SRF)": "1.665000E+01 dyn/cm",
    "Temperature of SRF (TSRF)": "2.982000E+02 K",
    "Dielectric Constant (DIEL)": NaN,
    "Temperature of DIEL (TDIEL)": NaN,
    "Refractive Index (RFI)": NaN,
    "Temperature of RFI (TRFI)": NaN,
    "Lower Flammability Limit(FLL)": "1.850000E+00 % in Air",
    "Upper Flammability Limit(FLU)": "3.650000E+01 % in Air",
    "Flash Point (Open Cup Method)": "2.281500E+02 K",
    "Flash Point (Closed Cup Method)": "2.331500E+02 K",
    "Autoignition Temperature (AIGT)": "4.531500E+02 K",
    "NFPA Rating (Health)": "2",
    "NFPA Rating (Fire)": "4",
    "NFPA Rating (Safety)": NaN,
    "Class": "Ethers",
    "Subclass": "Aliphatic Ethers",
    "SMILES": "CCOCC"
}