{
    "ID": "1015",
    "Name": "N-BUTYL ETHYL ETHER",
    "Synonyms": "ETHYL BUTYL ETHER, ETHYL N-BUTYL ETHER, 1-ETHOXYBUTANE",
    "CAS No.": "628-81-9",
    "Formula": "C6H14O",
    "Molecular Wt. (WT)": "1.02176E+02",
    "Normal Boiling Point Temp. (TB)": "3.65400E+02 K",
    "Freezing Point Temp. (TF)": "1.70000E+02 K",
    "Triple Point Temp. (TT)": NaN,
    "Triple Point Press. (PT)": NaN,
    "Critical Temperature. (TC)": "5.31000E+02 K",
    "Critical Pressure (PC)": "3.04000E+03 kPa",
    "Critical Volume (VC)": "3.90000E-01 m^3/kg-mol",
    "Critical Compressibility (ZC)": "2.68539E-01",
    "Accentric Factor (ACCF)": "4.00000E-01",
    "Vapor Pressure": {
        "Equation Name": "KDB Correlation Equation",
        "Equation": "ln(Pvp) = A*ln(T) + B/T + C + D*T^2 where Pvp in kPa, T in K",
        "Coefficient A": "-9.218741E+00",
        "Coefficient B": "-6.915686E+03",
        "Coefficient C": "7.712827E+01",
        "Coefficient D": "6.107802E-06",
        "Coefficient E": NaN,
        "Coefficient F": NaN,
        "Coefficient G": NaN,
        "T range, from": "170.15 K",
        "T range, to": "531.00 K"
    },
    "Heat Capacity (Ideal Gas)": {
        "Equation Name": "Polynomial Equation",
        "Equation": "Cp = A + B*T + C*T^2 + D*T^3 + E*T^4  where Cp in kJ/kg-mol , T in K",
        "Coefficient A": "2.363000E+01",
        "Coefficient B": "5.367000E-01",
        "Coefficient C": "-2.528000E-04",
        "Coefficient D": "4.157E-08",
        "Coefficient E": "0",
        "Coefficient F": NaN,
        "Coefficient G": NaN,
        "T range, from": NaN,
        "T range, to": NaN
    },
    "Heat Capacity (Liquid)": NaN,
    "Viscosity (Gas, Low P)": NaN,
    "Viscosity (Liquid)": NaN,
    "Themal Conductivity (Gas, Low P)": NaN,
    "Themal Conductivity (Liquid)": NaN,
    "Surface Tension": NaN,
    "Partial Molar Volume (VOLP)": "1.358400E-01 m^3/kg-mol",
    "Solubility Parameters (SOLP)": "1.552930E+04 (J/cm^3)^0.5",
    "SRK accentric factor (WSRK)": NaN,
    "COSTALD Characteristic Volume (VSTAR)": NaN,
    "Rackett parameter (ZRA)": NaN,
    "Aniline Point (ANP)": NaN,
    "H(formation,ideal gas)at 25 C": NaN,
    "G(formation,ideal gas) at 25 C": NaN,
    "Heat of Combustion, Gross form (HCB1)": NaN,
    "Heat of Combustion, Net form (HCB2)": NaN,
    "Van der Waals Volume (VDWV)": NaN,
    "Van der Waals Area (VDWA)": NaN,
    "UNIQUAC Ri Parameter (RI)": "4.743700E+00",
    "UNIQUAC Qi Parameter (QI)": "4.096000E+00",
    "Dipole Moment (DM)": "1.200000E+00 debye",
    "Radius of Gyration (GYRAD)": NaN,
    "Liquid Density (DENL)": "7.330488E-03 g-mol/cm^3",
    "Temperature of DENL (TDENL)": "2.930000E+02 K",
    "Heat of Vaporizaiton (HVAP)": NaN,
    "Temperature of HVAP (THVAP)": NaN,
    "Surface Tension (SRF)": NaN,
    "Temperature of SRF (TSRF)": NaN,
    "Dielectric Constant (DIEL)": NaN,
    "Temperature of DIEL (TDIEL)": NaN,
    "Refractive Index (RFI)": NaN,
    "Temperature of RFI (TRFI)": NaN,
    "Lower Flammability Limit(FLL)": NaN,
    "Upper Flammability Limit(FLU)": NaN,
    "Flash Point (Open Cup Method)": NaN,
    "Flash Point (Closed Cup Method)": NaN,
    "Autoignition Temperature (AIGT)": NaN,
    "NFPA Rating (Health)": 2.0,
    "NFPA Rating (Fire)": 3.0,
    "NFPA Rating (Safety)": NaN,
    "Class": "Ethers",
    "Subclass": "Aliphatic Ethers",
    "SMILES": "CCCCOCC"
}