{
    "ID": "1016",
    "Name": "DI-N-PROPYL ETHER",
    "Synonyms": "DIPROPYL ETHER, 1,1'-OXYBIS PROPANE, DIPROPYL OXIDE",
    "CAS No.": "111-43-3",
    "Formula": "C6H14O",
    "Molecular Wt. (WT)": "1.02176E+02",
    "Normal Boiling Point Temp. (TB)": "3.63230E+02 K",
    "Freezing Point Temp. (TF)": "1.47000E+02 K",
    "Triple Point Temp. (TT)": "1.58360E+02 K",
    "Triple Point Press. (PT)": NaN,
    "Critical Temperature. (TC)": "5.30600E+02 K",
    "Critical Pressure (PC)": "3.02800E+03 kPa",
    "Critical Volume (VC)": "3.89500E-01 m^3/kg-mol",
    "Critical Compressibility (ZC)": "2.67337E-01",
    "Accentric Factor (ACCF)": "3.69000E-01",
    "Vapor Pressure": {
        "Equation Name": "KDB Correlation Equation",
        "Equation": "ln(Pvp) = A*ln(T) + B/T + C + D*T^2 where Pvp in kPa, T in K",
        "Coefficient A": "-1.279601E+01",
        "Coefficient B": "-7.558586E+03",
        "Coefficient C": "9.938191E+01",
        "Coefficient D": "1.121626E-05",
        "Coefficient E": NaN,
        "Coefficient F": NaN,
        "Coefficient G": NaN,
        "T range, from": "149.95 K",
        "T range, to": "530.60 K"
    },
    "Heat Capacity (Ideal Gas)": {
        "Equation Name": "Polynomial Equation",
        "Equation": "Cp = A + B*T + C*T^2 + D*T^3 + E*T^4  where Cp in kJ/kg-mol , T in K",
        "Coefficient A": "1.862000E+01",
        "Coefficient B": "5.335000E-01",
        "Coefficient C": "-2.285000E-04",
        "Coefficient D": "2.442E-08",
        "Coefficient E": "0",
        "Coefficient F": NaN,
        "Coefficient G": NaN,
        "T range, from": NaN,
        "T range, to": NaN
    },
    "Heat Capacity (Liquid)": NaN,
    "Viscosity (Gas, Low P)": NaN,
    "Viscosity (Liquid)": {
        "Equation Name": "Andrade Equation",
        "Equation": "ln (VISL) = A + B/ T  where T in K and VISL in cP.",
        "Coefficient A": "-4.391",
        "Coefficient B": "1027",
        "Coefficient C": "0",
        "Coefficient D": "0",
        "Coefficient E": NaN,
        "Coefficient F": NaN,
        "Coefficient G": NaN,
        "T range, from": "273.15 K",
        "T range, to": "373.15 K"
    },
    "Themal Conductivity (Gas, Low P)": NaN,
    "Themal Conductivity (Liquid)": NaN,
    "Surface Tension": NaN,
    "Partial Molar Volume (VOLP)": "1.388300E-01 m^3/kg-mol",
    "Solubility Parameters (SOLP)": "1.551294E+04 (J/cm^3)^0.5",
    "SRK accentric factor (WSRK)": NaN,
    "COSTALD Characteristic Volume (VSTAR)": NaN,
    "Rackett parameter (ZRA)": NaN,
    "Aniline Point (ANP)": NaN,
    "H(formation,ideal gas)at 25 C": "-2.931000E+05 kJ/kg-mol",
    "G(formation,ideal gas) at 25 C": "-1.056000E+05 kJ/kg-mol",
    "Heat of Combustion, Gross form (HCB1)": NaN,
    "Heat of Combustion, Net form (HCB2)": NaN,
    "Van der Waals Volume (VDWV)": NaN,
    "Van der Waals Area (VDWA)": NaN,
    "UNIQUAC Ri Parameter (RI)": "4.743700E+00",
    "UNIQUAC Qi Parameter (QI)": "4.096000E+00",
    "Dipole Moment (DM)": "1.200000E+00 debye",
    "Radius of Gyration (GYRAD)": NaN,
    "Liquid Density (DENL)": "7.203257E-03 g-mol/cm^3",
    "Temperature of DENL (TDENL)": "2.930000E+02 K",
    "Heat of Vaporizaiton (HVAP)": "3.443400E+04 kJ/kg-mol",
    "Temperature of HVAP (THVAP)": "3.632000E+02 K",
    "Surface Tension (SRF)": "1.998000E+01 dyn/cm",
    "Temperature of SRF (TSRF)": "2.982000E+02 K",
    "Dielectric Constant (DIEL)": NaN,
    "Temperature of DIEL (TDIEL)": NaN,
    "Refractive Index (RFI)": NaN,
    "Temperature of RFI (TRFI)": NaN,
    "Lower Flammability Limit(FLL)": NaN,
    "Upper Flammability Limit(FLU)": NaN,
    "Flash Point (Open Cup Method)": NaN,
    "Flash Point (Closed Cup Method)": NaN,
    "Autoignition Temperature (AIGT)": NaN,
    "NFPA Rating (Health)": NaN,
    "NFPA Rating (Fire)": NaN,
    "NFPA Rating (Safety)": NaN,
    "Class": "Ethers",
    "Subclass": "Aliphatic Ethers",
    "SMILES": "CCCOCCC"
}