{
    "ID": "1017",
    "Name": "DIISOPROPYL ETHER",
    "Synonyms": "2,2'-OXYBIS-PROPANE, 2-ISOPROPOXYPROPANE, ISOPROPYL ETHER",
    "CAS No.": "108-20-3",
    "Formula": "C6H14O",
    "Molecular Wt. (WT)": "1.02176E+02",
    "Normal Boiling Point Temp. (TB)": "3.41660E+02 K",
    "Freezing Point Temp. (TF)": "1.86300E+02 K",
    "Triple Point Temp. (TT)": "1.87770E+02 K",
    "Triple Point Press. (PT)": NaN,
    "Critical Temperature. (TC)": "5.00320E+02 K",
    "Critical Pressure (PC)": "2.83200E+03 kPa",
    "Critical Volume (VC)": "3.86000E-01 m^3/kg-mol",
    "Critical Compressibility (ZC)": "2.62782E-01",
    "Accentric Factor (ACCF)": "3.31000E-01",
    "Vapor Pressure": {
        "Equation Name": "KDB Correlation Equation",
        "Equation": "ln(Pvp) = A*ln(T) + B/T + C + D*T^2 where Pvp in kPa, T in K",
        "Coefficient A": "-3.870848E+00",
        "Coefficient B": "-4.899515E+03",
        "Coefficient C": "4.130282E+01",
        "Coefficient D": "1.962407E-06",
        "Coefficient E": NaN,
        "Coefficient F": NaN,
        "Coefficient G": NaN,
        "T range, from": "187.65 K",
        "T range, to": "500.05 K"
    },
    "Heat Capacity (Ideal Gas)": {
        "Equation Name": "Polynomial Equation",
        "Equation": "Cp = A + B*T + C*T^2 + D*T^3 + E*T^4  where Cp in kJ/kg-mol , T in K",
        "Coefficient A": "1.429312E+01",
        "Coefficient B": "5.734584E-01",
        "Coefficient C": "-3.080001E-04",
        "Coefficient D": "7.357873E-08",
        "Coefficient E": "-4.513834E-12",
        "Coefficient F": NaN,
        "Coefficient G": NaN,
        "T range, from": NaN,
        "T range, to": NaN
    },
    "Heat Capacity (Liquid)": NaN,
    "Viscosity (Gas, Low P)": NaN,
    "Viscosity (Liquid)": NaN,
    "Themal Conductivity (Gas, Low P)": NaN,
    "Themal Conductivity (Liquid)": NaN,
    "Surface Tension": NaN,
    "Partial Molar Volume (VOLP)": "1.422800E-01 m^3/kg-mol",
    "Solubility Parameters (SOLP)": NaN,
    "SRK accentric factor (WSRK)": NaN,
    "COSTALD Characteristic Volume (VSTAR)": NaN,
    "Rackett parameter (ZRA)": NaN,
    "Aniline Point (ANP)": NaN,
    "H(formation,ideal gas)at 25 C": "-3.190000E+05 kJ/kg-mol",
    "G(formation,ideal gas) at 25 C": "-1.220000E+05 kJ/kg-mol",
    "Heat of Combustion, Gross form (HCB1)": NaN,
    "Heat of Combustion, Net form (HCB2)": NaN,
    "Van der Waals Volume (VDWV)": NaN,
    "Van der Waals Area (VDWA)": NaN,
    "UNIQUAC Ri Parameter (RI)": "4.742100E+00",
    "UNIQUAC Qi Parameter (QI)": "4.088000E+00",
    "Dipole Moment (DM)": "1.200000E+00 debye",
    "Radius of Gyration (GYRAD)": NaN,
    "Liquid Density (DENL)": "7.085812E-03 g-mol/cm^3",
    "Temperature of DENL (TDENL)": "2.930000E+02 K",
    "Heat of Vaporizaiton (HVAP)": "2.933000E+04 kJ/kg-mol",
    "Temperature of HVAP (THVAP)": "3.414000E+02 K",
    "Surface Tension (SRF)": "1.727000E+01 dyn/cm",
    "Temperature of SRF (TSRF)": "2.982000E+02 K",
    "Dielectric Constant (DIEL)": NaN,
    "Temperature of DIEL (TDIEL)": NaN,
    "Refractive Index (RFI)": NaN,
    "Temperature of RFI (TRFI)": NaN,
    "Lower Flammability Limit(FLL)": "1.400000E+00 % in Air",
    "Upper Flammability Limit(FLU)": "7.900000E+00 % in Air",
    "Flash Point (Open Cup Method)": "2.453722E+02 K",
    "Flash Point (Closed Cup Method)": "2.470389E+02 K",
    "Autoignition Temperature (AIGT)": "7.164833E+02 K",
    "NFPA Rating (Health)": "2",
    "NFPA Rating (Fire)": "3",
    "NFPA Rating (Safety)": "1",
    "Class": "Ethers",
    "Subclass": "Aliphatic Ethers",
    "SMILES": "CC(C)OC(C)C"
}