{
    "ID": "1035",
    "Name": "TETRAHYDROFURAN",
    "Synonyms": "1,4-EPOXY-BUTANE, CYCLOTETRAMETHYLENE OXIDE, TETRAMETHYLENE OXIDE",
    "CAS No.": "109-99-9",
    "Formula": "C4H8O",
    "Molecular Wt. (WT)": "7.21066E+01",
    "Normal Boiling Point Temp. (TB)": "3.38000E+02 K",
    "Freezing Point Temp. (TF)": "1.64760E+02 K",
    "Triple Point Temp. (TT)": NaN,
    "Triple Point Press. (PT)": NaN,
    "Critical Temperature. (TC)": "5.40100E+02 K",
    "Critical Pressure (PC)": "5.19000E+03 kPa",
    "Critical Volume (VC)": "2.24000E-01 m^3/kg-mol",
    "Critical Compressibility (ZC)": "2.58884E-01",
    "Accentric Factor (ACCF)": "2.17000E-01",
    "Vapor Pressure": {
        "Equation Name": "KDB Correlation Equation",
        "Equation": "ln(Pvp) = A*ln(T) + B/T + C + D*T^2 where Pvp in kPa, T in K",
        "Coefficient A": "-9.608804E+00",
        "Coefficient B": "-6.339983E+03",
        "Coefficient C": "7.835769E+01",
        "Coefficient D": "8.183476E-06",
        "Coefficient E": NaN,
        "Coefficient F": NaN,
        "Coefficient G": NaN,
        "T range, from": "164.65 K",
        "T range, to": "540.15 K"
    },
    "Heat Capacity (Ideal Gas)": {
        "Equation Name": "Polynomial Equation",
        "Equation": "Cp = A + B*T + C*T^2 + D*T^3 + E*T^4  where Cp in kJ/kg-mol , T in K",
        "Coefficient A": "1.910000E+01",
        "Coefficient B": "5.162000E-01",
        "Coefficient C": "-4.132000E-04",
        "Coefficient D": "1.454E-07",
        "Coefficient E": "0",
        "Coefficient F": NaN,
        "Coefficient G": NaN,
        "T range, from": NaN,
        "T range, to": NaN
    },
    "Heat Capacity (Liquid)": NaN,
    "Viscosity (Gas, Low P)": NaN,
    "Viscosity (Liquid)": NaN,
    "Themal Conductivity (Gas, Low P)": NaN,
    "Themal Conductivity (Liquid)": NaN,
    "Surface Tension": NaN,
    "Partial Molar Volume (VOLP)": "8.155000E-02 m^3/kg-mol",
    "Solubility Parameters (SOLP)": "1.861185E+04 (J/cm^3)^0.5",
    "SRK accentric factor (WSRK)": "2.227000E-01",
    "COSTALD Characteristic Volume (VSTAR)": "2.308000E-01 m^3/kg-mol",
    "Rackett parameter (ZRA)": "2.675000E-01",
    "Aniline Point (ANP)": NaN,
    "H(formation,ideal gas)at 25 C": "-1.843000E+05 kJ/kg-mol",
    "G(formation,ideal gas) at 25 C": NaN,
    "Heat of Combustion, Gross form (HCB1)": NaN,
    "Heat of Combustion, Net form (HCB2)": NaN,
    "Van der Waals Volume (VDWV)": NaN,
    "Van der Waals Area (VDWA)": NaN,
    "UNIQUAC Ri Parameter (RI)": "2.941500E+00",
    "UNIQUAC Qi Parameter (QI)": "2.720000E+00",
    "Dipole Moment (DM)": "1.700000E+00 debye",
    "Radius of Gyration (GYRAD)": "2.600000E+00",
    "Liquid Density (DENL)": "1.232897E-02 g-mol/cm^3",
    "Temperature of DENL (TDENL)": "2.930000E+02 K",
    "Heat of Vaporizaiton (HVAP)": NaN,
    "Temperature of HVAP (THVAP)": NaN,
    "Surface Tension (SRF)": NaN,
    "Temperature of SRF (TSRF)": NaN,
    "Dielectric Constant (DIEL)": NaN,
    "Temperature of DIEL (TDIEL)": NaN,
    "Refractive Index (RFI)": NaN,
    "Temperature of RFI (TRFI)": NaN,
    "Lower Flammability Limit(FLL)": NaN,
    "Upper Flammability Limit(FLU)": NaN,
    "Flash Point (Open Cup Method)": NaN,
    "Flash Point (Closed Cup Method)": NaN,
    "Autoignition Temperature (AIGT)": NaN,
    "NFPA Rating (Health)": 2.0,
    "NFPA Rating (Fire)": 3.0,
    "NFPA Rating (Safety)": NaN,
    "Class": "Ethers",
    "Subclass": "Cyclic Ethers",
    "SMILES": "C1CCOC1"
}