{
    "ID": "1042",
    "Name": "ETHYLENE OXIDE",
    "Synonyms": "OXIRANE, DIHYDROOXIRENE, DIMETHYLENE OXIDE",
    "CAS No.": "75-21-8",
    "Formula": "C2H4O",
    "Molecular Wt. (WT)": "4.40530E+01",
    "Normal Boiling Point Temp. (TB)": "2.83700E+02 K",
    "Freezing Point Temp. (TF)": "1.61400E+02 K",
    "Triple Point Temp. (TT)": NaN,
    "Triple Point Press. (PT)": NaN,
    "Critical Temperature. (TC)": "4.69000E+02 K",
    "Critical Pressure (PC)": "7.19000E+03 kPa",
    "Critical Volume (VC)": "1.40000E-01 m^3/kg-mol",
    "Critical Compressibility (ZC)": "2.58135E-01",
    "Accentric Factor (ACCF)": "2.02000E-01",
    "Vapor Pressure": {
        "Equation Name": "KDB Correlation Equation",
        "Equation": "ln(Pvp) = A*ln(T) + B/T + C + D*T^2 where Pvp in kPa, T in K",
        "Coefficient A": "-7.942549E+00",
        "Coefficient B": "-5.010708E+03",
        "Coefficient C": "6.640774E+01",
        "Coefficient D": "9.185604E-06",
        "Coefficient E": NaN,
        "Coefficient F": NaN,
        "Coefficient G": NaN,
        "T range, from": "160.71 K",
        "T range, to": "469.15 K"
    },
    "Heat Capacity (Ideal Gas)": {
        "Equation Name": "Polynomial Equation",
        "Equation": "Cp = A + B*T + C*T^2 + D*T^3 + E*T^4  where Cp in kJ/kg-mol , T in K",
        "Coefficient A": "-7.519000E+00",
        "Coefficient B": "2.222000E-01",
        "Coefficient C": "-1.256000E-04",
        "Coefficient D": "2.592E-08",
        "Coefficient E": "0",
        "Coefficient F": NaN,
        "Coefficient G": NaN,
        "T range, from": NaN,
        "T range, to": NaN
    },
    "Heat Capacity (Liquid)": {
        "Equation Name": "Polynomial Equation",
        "Equation": "Cp = A + B*T + C*T^2 + D*T^3  where T in K and Cp in kJ/kg-mol.K",
        "Coefficient A": "52.32781",
        "Coefficient B": ".4325938",
        "Coefficient C": "-2.149145E-03",
        "Coefficient D": "3.693728E-06",
        "Coefficient E": NaN,
        "Coefficient F": NaN,
        "Coefficient G": NaN,
        "T range, from": "160.65 K",
        "T range, to": "453.15 K"
    },
    "Viscosity (Gas, Low P)": {
        "Equation Name": "Polynomial Equation",
        "Equation": "VISG = A + B*T + C*T^2 where T in K and VISG in cP",
        "Coefficient A": "-.0007614",
        "Coefficient B": "3.627E-05",
        "Coefficient C": "-6.632E-09",
        "Coefficient D": "0",
        "Coefficient E": NaN,
        "Coefficient F": NaN,
        "Coefficient G": NaN,
        "T range, from": "273.15 K",
        "T range, to": "1273.15 K"
    },
    "Viscosity (Liquid)": {
        "Equation Name": "Quasipolynomial Equation",
        "Equation": "ln (VISL) = A + B/T + C*T + D*T^2  where T in K and VISL in cP.",
        "Coefficient A": "-3.864",
        "Coefficient B": "719.3",
        "Coefficient C": ".000744",
        "Coefficient D": "-1.805E-06",
        "Coefficient E": NaN,
        "Coefficient F": NaN,
        "Coefficient G": NaN,
        "T range, from": "161.15 K",
        "T range, to": "468.15 K"
    },
    "Themal Conductivity (Gas, Low P)": {
        "Equation Name": "Polynomial Equation",
        "Equation": "THG = A + B*T + C*T^2 + D*T^3  where T in K and THG in W/m.K",
        "Coefficient A": "-.01459",
        "Coefficient B": "5.427E-05",
        "Coefficient C": "1.52E-07",
        "Coefficient D": "-7.647E-11",
        "Coefficient E": NaN,
        "Coefficient F": NaN,
        "Coefficient G": NaN,
        "T range, from": "273 K",
        "T range, to": "1270 K"
    },
    "Themal Conductivity (Liquid)": {
        "Equation Name": "Polynomial Equation",
        "Equation": "THL = A + B*T + C*T^2 + D*T^3  where T in K and THL in W/m.K",
        "Coefficient A": ".2624",
        "Coefficient B": "-.0003329",
        "Coefficient C": "-1.193E-07",
        "Coefficient D": "0",
        "Coefficient E": NaN,
        "Coefficient F": NaN,
        "Coefficient G": NaN,
        "T range, from": "161 K",
        "T range, to": "453 K"
    },
    "Surface Tension": NaN,
    "Partial Molar Volume (VOLP)": "4.992000E-02 m^3/kg-mol",
    "Solubility Parameters (SOLP)": "2.087211E+04 (J/cm^3)^0.5",
    "SRK accentric factor (WSRK)": "2.114000E-01",
    "COSTALD Characteristic Volume (VSTAR)": "1.345000E-01 m^3/kg-mol",
    "Rackett parameter (ZRA)": "2.569000E-01",
    "Aniline Point (ANP)": NaN,
    "H(formation,ideal gas)at 25 C": "-5.267000E+04 kJ/kg-mol",
    "G(formation,ideal gas) at 25 C": "-1.310000E+04 kJ/kg-mol",
    "Heat of Combustion, Gross form (HCB1)": NaN,
    "Heat of Combustion, Net form (HCB2)": NaN,
    "Van der Waals Volume (VDWV)": NaN,
    "Van der Waals Area (VDWA)": NaN,
    "UNIQUAC Ri Parameter (RI)": "1.592700E+00",
    "UNIQUAC Qi Parameter (QI)": "1.320000E+00",
    "Dipole Moment (DM)": "1.900000E+00 debye",
    "Radius of Gyration (GYRAD)": NaN,
    "Liquid Density (DENL)": "2.040724E-02 g-mol/cm^3",
    "Temperature of DENL (TDENL)": "2.730000E+02 K",
    "Heat of Vaporizaiton (HVAP)": "2.560600E+04 kJ/kg-mol",
    "Temperature of HVAP (THVAP)": "2.838000E+02 K",
    "Surface Tension (SRF)": "3.265000E+01 dyn/cm",
    "Temperature of SRF (TSRF)": "2.432000E+02 K",
    "Dielectric Constant (DIEL)": NaN,
    "Temperature of DIEL (TDIEL)": NaN,
    "Refractive Index (RFI)": NaN,
    "Temperature of RFI (TRFI)": NaN,
    "Lower Flammability Limit(FLL)": "3.000000E+00 % in Air",
    "Upper Flammability Limit(FLU)": "1.000000E+02 % in Air",
    "Flash Point (Open Cup Method)": NaN,
    "Flash Point (Closed Cup Method)": "2.553722E+02 K",
    "Autoignition Temperature (AIGT)": "7.020389E+02 K",
    "NFPA Rating (Health)": "2",
    "NFPA Rating (Fire)": "4",
    "NFPA Rating (Safety)": NaN,
    "Class": "Ethers",
    "Subclass": "Epoxide",
    "SMILES": "C1CO1"
}