{
    "ID": "1043",
    "Name": "1,2-PROPYLENE OXIDE",
    "Synonyms": "METHYL OXIRANE, EPOXYPROPANE, PROPENE OXIDE",
    "CAS No.": "75-56-9",
    "Formula": "C3H6O",
    "Molecular Wt. (WT)": "5.80798E+01",
    "Normal Boiling Point Temp. (TB)": "3.08000E+02 K",
    "Freezing Point Temp. (TF)": "1.61220E+02 K",
    "Triple Point Temp. (TT)": NaN,
    "Triple Point Press. (PT)": NaN,
    "Critical Temperature. (TC)": "4.82200E+02 K",
    "Critical Pressure (PC)": "4.92000E+03 kPa",
    "Critical Volume (VC)": "1.86000E-01 m^3/kg-mol",
    "Critical Compressibility (ZC)": "2.28252E-01",
    "Accentric Factor (ACCF)": "2.69000E-01",
    "Vapor Pressure": {
        "Equation Name": "KDB Correlation Equation",
        "Equation": "ln(Pvp) = A*ln(T) + B/T + C + D*T^2 where Pvp in kPa, T in K",
        "Coefficient A": "-1.021727E+01",
        "Coefficient B": "-5.899840E+03",
        "Coefficient C": "8.128785E+01",
        "Coefficient D": "1.108731E-05",
        "Coefficient E": NaN,
        "Coefficient F": NaN,
        "Coefficient G": NaN,
        "T range, from": "161.22 K",
        "T range, to": "482.25 K"
    },
    "Heat Capacity (Ideal Gas)": {
        "Equation Name": "Polynomial Equation",
        "Equation": "Cp = A + B*T + C*T^2 + D*T^3 + E*T^4  where Cp in kJ/kg-mol , T in K",
        "Coefficient A": "-8.457000E+00",
        "Coefficient B": "3.257000E-01",
        "Coefficient C": "-1.989000E-04",
        "Coefficient D": "4.823E-08",
        "Coefficient E": "0",
        "Coefficient F": NaN,
        "Coefficient G": NaN,
        "T range, from": NaN,
        "T range, to": NaN
    },
    "Heat Capacity (Liquid)": {
        "Equation Name": "Polynomial Equation",
        "Equation": "Cp = A + B*T + C*T^2 + D*T^3  where T in K and Cp in kJ/kg-mol.K",
        "Coefficient A": "39.12395",
        "Coefficient B": ".8918316",
        "Coefficient C": "-3.761731E-03",
        "Coefficient D": "5.574555E-06",
        "Coefficient E": NaN,
        "Coefficient F": NaN,
        "Coefficient G": NaN,
        "T range, from": "161.15 K",
        "T range, to": "473.15 K"
    },
    "Viscosity (Gas, Low P)": {
        "Equation Name": "Polynomial Equation",
        "Equation": "VISG = A + B*T + C*T^2 where T in K and VISG in cP",
        "Coefficient A": "-7.719999E-04",
        "Coefficient B": "3.389E-05",
        "Coefficient C": "-5.594E-09",
        "Coefficient D": "0",
        "Coefficient E": NaN,
        "Coefficient F": NaN,
        "Coefficient G": NaN,
        "T range, from": "273.15 K",
        "T range, to": "1273.15 K"
    },
    "Viscosity (Liquid)": NaN,
    "Themal Conductivity (Gas, Low P)": NaN,
    "Themal Conductivity (Liquid)": NaN,
    "Surface Tension": NaN,
    "Partial Molar Volume (VOLP)": "7.075000E-02 m^3/kg-mol",
    "Solubility Parameters (SOLP)": "1.895140E+04 (J/cm^3)^0.5",
    "SRK accentric factor (WSRK)": "2.593000E-01",
    "COSTALD Characteristic Volume (VSTAR)": "1.910000E-01 m^3/kg-mol",
    "Rackett parameter (ZRA)": NaN,
    "Aniline Point (ANP)": NaN,
    "H(formation,ideal gas)at 25 C": "-9.281999E+04 kJ/kg-mol",
    "G(formation,ideal gas) at 25 C": "-2.580000E+04 kJ/kg-mol",
    "Heat of Combustion, Gross form (HCB1)": NaN,
    "Heat of Combustion, Net form (HCB2)": NaN,
    "Van der Waals Volume (VDWV)": NaN,
    "Van der Waals Area (VDWA)": NaN,
    "UNIQUAC Ri Parameter (RI)": "2.266300E+00",
    "UNIQUAC Qi Parameter (QI)": "1.856000E+00",
    "Dipole Moment (DM)": "2.000000E+00 debye",
    "Radius of Gyration (GYRAD)": NaN,
    "Liquid Density (DENL)": "1.427347E-02 g-mol/cm^3",
    "Temperature of DENL (TDENL)": "2.930000E+02 K",
    "Heat of Vaporizaiton (HVAP)": "2.698700E+04 kJ/kg-mol",
    "Temperature of HVAP (THVAP)": "3.073000E+02 K",
    "Surface Tension (SRF)": NaN,
    "Temperature of SRF (TSRF)": NaN,
    "Dielectric Constant (DIEL)": NaN,
    "Temperature of DIEL (TDIEL)": NaN,
    "Refractive Index (RFI)": NaN,
    "Temperature of RFI (TRFI)": NaN,
    "Lower Flammability Limit(FLL)": NaN,
    "Upper Flammability Limit(FLU)": NaN,
    "Flash Point (Open Cup Method)": NaN,
    "Flash Point (Closed Cup Method)": NaN,
    "Autoignition Temperature (AIGT)": NaN,
    "NFPA Rating (Health)": NaN,
    "NFPA Rating (Fire)": NaN,
    "NFPA Rating (Safety)": NaN,
    "Class": "Ethers",
    "Subclass": "Epoxide",
    "SMILES": "CC1CO1"
}