{
    "ID": "1047",
    "Name": "1,4-DIOXANE",
    "Synonyms": "P-DIOXANE, DIETHYLENE DIOXIDE, DIETHYLENE ETHER",
    "CAS No.": "123-91-1",
    "Formula": "C4H8O2",
    "Molecular Wt. (WT)": "8.81060E+01",
    "Normal Boiling Point Temp. (TB)": "3.74600E+02 K",
    "Freezing Point Temp. (TF)": "2.84900E+02 K",
    "Triple Point Temp. (TT)": NaN,
    "Triple Point Press. (PT)": NaN,
    "Critical Temperature. (TC)": "5.87000E+02 K",
    "Critical Pressure (PC)": "5.21000E+03 kPa",
    "Critical Volume (VC)": "2.38000E-01 m^3/kg-mol",
    "Critical Compressibility (ZC)": "2.54062E-01",
    "Accentric Factor (ACCF)": "2.81000E-01",
    "Vapor Pressure": {
        "Equation Name": "KDB Correlation Equation",
        "Equation": "ln(Pvp) = A*ln(T) + B/T + C + D*T^2 where Pvp in kPa, T in K",
        "Coefficient A": "-9.151525E+00",
        "Coefficient B": "-7.075938E+03",
        "Coefficient C": "7.691763E+01",
        "Coefficient D": "5.901579E-06",
        "Coefficient E": NaN,
        "Coefficient F": NaN,
        "Coefficient G": NaN,
        "T range, from": "275.00 K",
        "T range, to": "587.00 K"
    },
    "Heat Capacity (Ideal Gas)": {
        "Equation Name": "Polynomial Equation",
        "Equation": "Cp = A + B*T + C*T^2 + D*T^3 + E*T^4  where Cp in kJ/kg-mol , T in K",
        "Coefficient A": "-5.357000E+01",
        "Coefficient B": "5.987000E-01",
        "Coefficient C": "-4.085000E-04",
        "Coefficient D": "1.062E-07",
        "Coefficient E": "0",
        "Coefficient F": NaN,
        "Coefficient G": NaN,
        "T range, from": NaN,
        "T range, to": NaN
    },
    "Heat Capacity (Liquid)": NaN,
    "Viscosity (Gas, Low P)": NaN,
    "Viscosity (Liquid)": NaN,
    "Themal Conductivity (Gas, Low P)": NaN,
    "Themal Conductivity (Liquid)": NaN,
    "Surface Tension": NaN,
    "Partial Molar Volume (VOLP)": "8.571000E-02 m^3/kg-mol",
    "Solubility Parameters (SOLP)": "1.980027E+04 (J/cm^3)^0.5",
    "SRK accentric factor (WSRK)": "2.779000E-01",
    "COSTALD Characteristic Volume (VSTAR)": "2.523000E-01 m^3/kg-mol",
    "Rackett parameter (ZRA)": "2.660000E-01",
    "Aniline Point (ANP)": NaN,
    "H(formation,ideal gas)at 25 C": "-3.153000E+05 kJ/kg-mol",
    "G(formation,ideal gas) at 25 C": "-1.809000E+05 kJ/kg-mol",
    "Heat of Combustion, Gross form (HCB1)": NaN,
    "Heat of Combustion, Net form (HCB2)": NaN,
    "Van der Waals Volume (VDWV)": NaN,
    "Van der Waals Area (VDWA)": NaN,
    "UNIQUAC Ri Parameter (RI)": "3.185400E+00",
    "UNIQUAC Qi Parameter (QI)": "2.640000E+00",
    "Dipole Moment (DM)": "4.000000E-01 debye",
    "Radius of Gyration (GYRAD)": "3.110000E+00",
    "Liquid Density (DENL)": "1.172451E-02 g-mol/cm^3",
    "Temperature of DENL (TDENL)": "2.930000E+02 K",
    "Heat of Vaporizaiton (HVAP)": NaN,
    "Temperature of HVAP (THVAP)": NaN,
    "Surface Tension (SRF)": NaN,
    "Temperature of SRF (TSRF)": NaN,
    "Dielectric Constant (DIEL)": NaN,
    "Temperature of DIEL (TDIEL)": NaN,
    "Refractive Index (RFI)": NaN,
    "Temperature of RFI (TRFI)": NaN,
    "Lower Flammability Limit(FLL)": "1.970000E+00 % in Air",
    "Upper Flammability Limit(FLU)": "2.250000E+01 % in Air",
    "Flash Point (Open Cup Method)": "2.853722E+02 K",
    "Flash Point (Closed Cup Method)": "2.964833E+02 K",
    "Autoignition Temperature (AIGT)": "4.531500E+02 K",
    "NFPA Rating (Health)": NaN,
    "NFPA Rating (Fire)": NaN,
    "NFPA Rating (Safety)": NaN,
    "Class": "Ethers",
    "Subclass": "Epoxide",
    "SMILES": "C1COCCO1"
}