{
    "ID": "1050",
    "Name": "1,2-DIMETHOXYETHANE",
    "Synonyms": "DIMETHYL CELLOSOLVE, ETHYLENE DIMETHYL ETHER",
    "CAS No.": "110-71-4",
    "Formula": "C4H10O2",
    "Molecular Wt. (WT)": "9.01218E+01",
    "Normal Boiling Point Temp. (TB)": "3.58000E+02 K",
    "Freezing Point Temp. (TF)": "2.15000E+02 K",
    "Triple Point Temp. (TT)": NaN,
    "Triple Point Press. (PT)": NaN,
    "Critical Temperature. (TC)": "5.36000E+02 K",
    "Critical Pressure (PC)": "3.87000E+03 kPa",
    "Critical Volume (VC)": "2.71000E-01 m^3/kg-mol",
    "Critical Compressibility (ZC)": "2.35331E-01",
    "Accentric Factor (ACCF)": "3.58000E-01",
    "Vapor Pressure": {
        "Equation Name": "KDB Correlation Equation",
        "Equation": "ln(Pvp) = A*ln(T) + B/T + C + D*T^2 where Pvp in kPa, T in K",
        "Coefficient A": "-6.941942E+00",
        "Coefficient B": "-6.005575E+03",
        "Coefficient C": "6.148833E+01",
        "Coefficient D": "5.629759E-06",
        "Coefficient E": NaN,
        "Coefficient F": NaN,
        "Coefficient G": NaN,
        "T range, from": "215.15 K",
        "T range, to": "536.15 K"
    },
    "Heat Capacity (Ideal Gas)": {
        "Equation Name": "Polynomial Equation",
        "Equation": "Cp = A + B*T + C*T^2 + D*T^3 + E*T^4  where Cp in kJ/kg-mol , T in K",
        "Coefficient A": "3.223000E+01",
        "Coefficient B": "3.567000E-01",
        "Coefficient C": "-1.336000E-04",
        "Coefficient D": "8.399001E-09",
        "Coefficient E": "0",
        "Coefficient F": NaN,
        "Coefficient G": NaN,
        "T range, from": NaN,
        "T range, to": NaN
    },
    "Heat Capacity (Liquid)": NaN,
    "Viscosity (Gas, Low P)": NaN,
    "Viscosity (Liquid)": NaN,
    "Themal Conductivity (Gas, Low P)": NaN,
    "Themal Conductivity (Liquid)": NaN,
    "Surface Tension": NaN,
    "Partial Molar Volume (VOLP)": "1.044400E-01 m^3/kg-mol",
    "Solubility Parameters (SOLP)": "1.742342E+04 (J/cm^3)^0.5",
    "SRK accentric factor (WSRK)": NaN,
    "COSTALD Characteristic Volume (VSTAR)": NaN,
    "Rackett parameter (ZRA)": NaN,
    "Aniline Point (ANP)": NaN,
    "H(formation,ideal gas)at 25 C": NaN,
    "G(formation,ideal gas) at 25 C": NaN,
    "Heat of Combustion, Gross form (HCB1)": NaN,
    "Heat of Combustion, Net form (HCB2)": NaN,
    "Van der Waals Volume (VDWV)": NaN,
    "Van der Waals Area (VDWA)": NaN,
    "UNIQUAC Ri Parameter (RI)": "3.638800E+00",
    "UNIQUAC Qi Parameter (QI)": "3.256000E+00",
    "Dipole Moment (DM)": "0.000000E+00 debye",
    "Radius of Gyration (GYRAD)": NaN,
    "Liquid Density (DENL)": "9.620314E-03 g-mol/cm^3",
    "Temperature of DENL (TDENL)": "2.930000E+02 K",
    "Heat of Vaporizaiton (HVAP)": NaN,
    "Temperature of HVAP (THVAP)": NaN,
    "Surface Tension (SRF)": NaN,
    "Temperature of SRF (TSRF)": NaN,
    "Dielectric Constant (DIEL)": NaN,
    "Temperature of DIEL (TDIEL)": NaN,
    "Refractive Index (RFI)": NaN,
    "Temperature of RFI (TRFI)": NaN,
    "Lower Flammability Limit(FLL)": NaN,
    "Upper Flammability Limit(FLU)": NaN,
    "Flash Point (Open Cup Method)": NaN,
    "Flash Point (Closed Cup Method)": NaN,
    "Autoignition Temperature (AIGT)": NaN,
    "NFPA Rating (Health)": NaN,
    "NFPA Rating (Fire)": NaN,
    "NFPA Rating (Safety)": NaN,
    "Class": "Ethers",
    "Subclass": "Acetals",
    "SMILES": "COCCOC"
}