{
    "ID": "1053",
    "Name": "METHYL FORMATE",
    "Synonyms": "METHYL ESTER FORMIC ACID, METHYL METHANOATE",
    "CAS No.": "107-31-3",
    "Formula": "C2H4O2",
    "Molecular Wt. (WT)": "6.00524E+01",
    "Normal Boiling Point Temp. (TB)": "3.04800E+02 K",
    "Freezing Point Temp. (TF)": "1.74000E+02 K",
    "Triple Point Temp. (TT)": NaN,
    "Triple Point Press. (PT)": NaN,
    "Critical Temperature. (TC)": "4.87200E+02 K",
    "Critical Pressure (PC)": "5.99800E+03 kPa",
    "Critical Volume (VC)": "1.72000E-01 m^3/kg-mol",
    "Critical Compressibility (ZC)": "2.54678E-01",
    "Accentric Factor (ACCF)": "2.57000E-01",
    "Vapor Pressure": {
        "Equation Name": "KDB Correlation Equation",
        "Equation": "ln(Pvp) = A*ln(T) + B/T + C + D*T^2 where Pvp in kPa, T in K",
        "Coefficient A": "-7.664408E+00",
        "Coefficient B": "-5.451754E+03",
        "Coefficient C": "6.571155E+01",
        "Coefficient D": "6.729177E-06",
        "Coefficient E": NaN,
        "Coefficient F": NaN,
        "Coefficient G": NaN,
        "T range, from": "174.15 K",
        "T range, to": "487.20 K"
    },
    "Heat Capacity (Ideal Gas)": {
        "Equation Name": "Polynomial Equation",
        "Equation": "Cp = A + B*T + C*T^2 + D*T^3 + E*T^4  where Cp in kJ/kg-mol , T in K",
        "Coefficient A": "1.432000E+00",
        "Coefficient B": "2.700000E-01",
        "Coefficient C": "-1.949000E-04",
        "Coefficient D": "5.702E-08",
        "Coefficient E": "0",
        "Coefficient F": NaN,
        "Coefficient G": NaN,
        "T range, from": NaN,
        "T range, to": NaN
    },
    "Heat Capacity (Liquid)": NaN,
    "Viscosity (Gas, Low P)": NaN,
    "Viscosity (Liquid)": {
        "Equation Name": "Andrade Equation",
        "Equation": "ln (VISL) = A + B/ T  where T in K and VISL in cP.",
        "Coefficient A": "-3.932",
        "Coefficient B": "836.3",
        "Coefficient C": "0",
        "Coefficient D": "0",
        "Coefficient E": NaN,
        "Coefficient F": NaN,
        "Coefficient G": NaN,
        "T range, from": "273.15 K",
        "T range, to": "313.15 K"
    },
    "Themal Conductivity (Gas, Low P)": NaN,
    "Themal Conductivity (Liquid)": NaN,
    "Surface Tension": NaN,
    "Partial Molar Volume (VOLP)": "6.211000E-02 m^3/kg-mol",
    "Solubility Parameters (SOLP)": "2.059597E+04 (J/cm^3)^0.5",
    "SRK accentric factor (WSRK)": NaN,
    "COSTALD Characteristic Volume (VSTAR)": NaN,
    "Rackett parameter (ZRA)": NaN,
    "Aniline Point (ANP)": NaN,
    "H(formation,ideal gas)at 25 C": "-3.500000E+05 kJ/kg-mol",
    "G(formation,ideal gas) at 25 C": "-2.974000E+05 kJ/kg-mol",
    "Heat of Combustion, Gross form (HCB1)": NaN,
    "Heat of Combustion, Net form (HCB2)": NaN,
    "Van der Waals Volume (VDWV)": NaN,
    "Van der Waals Area (VDWA)": NaN,
    "UNIQUAC Ri Parameter (RI)": "2.129800E+00",
    "UNIQUAC Qi Parameter (QI)": "2.036000E+00",
    "Dipole Moment (DM)": "1.800000E+00 debye",
    "Radius of Gyration (GYRAD)": NaN,
    "Liquid Density (DENL)": "1.621917E-02 g-mol/cm^3",
    "Temperature of DENL (TDENL)": "2.930000E+02 K",
    "Heat of Vaporizaiton (HVAP)": "2.820000E+04 kJ/kg-mol",
    "Temperature of HVAP (THVAP)": "3.051000E+02 K",
    "Surface Tension (SRF)": NaN,
    "Temperature of SRF (TSRF)": NaN,
    "Dielectric Constant (DIEL)": NaN,
    "Temperature of DIEL (TDIEL)": NaN,
    "Refractive Index (RFI)": NaN,
    "Temperature of RFI (TRFI)": NaN,
    "Lower Flammability Limit(FLL)": "5.000000E+00 % in Air",
    "Upper Flammability Limit(FLU)": "2.270000E+01 % in Air",
    "Flash Point (Open Cup Method)": "2.409278E+02 K",
    "Flash Point (Closed Cup Method)": NaN,
    "Autoignition Temperature (AIGT)": "7.292611E+02 K",
    "NFPA Rating (Health)": "2",
    "NFPA Rating (Fire)": "4",
    "NFPA Rating (Safety)": "1",
    "Class": "Esters",
    "Subclass": "Aliphatic Ketones",
    "SMILES": "COC=O"
}