{
    "ID": "1054",
    "Name": "METHYL ACETATE",
    "Synonyms": "DEVOTON, METHYL ETHANOATE, METHYL ACETIC ESTER",
    "CAS No.": "79-20-9",
    "Formula": "C3H6O2",
    "Molecular Wt. (WT)": "7.40792E+01",
    "Normal Boiling Point Temp. (TB)": "3.30020E+02 K",
    "Freezing Point Temp. (TF)": "1.75000E+02 K",
    "Triple Point Temp. (TT)": NaN,
    "Triple Point Press. (PT)": NaN,
    "Critical Temperature. (TC)": "5.06550E+02 K",
    "Critical Pressure (PC)": "4.75000E+03 kPa",
    "Critical Volume (VC)": "2.28000E-01 m^3/kg-mol",
    "Critical Compressibility (ZC)": "2.57140E-01",
    "Accentric Factor (ACCF)": "3.26000E-01",
    "Vapor Pressure": {
        "Equation Name": "KDB Correlation Equation",
        "Equation": "ln(Pvp) = A*ln(T) + B/T + C + D*T^2 where Pvp in kPa, T in K",
        "Coefficient A": "-9.586321E+00",
        "Coefficient B": "-6.362770E+03",
        "Coefficient C": "7.858733E+01",
        "Coefficient D": "8.253700E-06",
        "Coefficient E": NaN,
        "Coefficient F": NaN,
        "Coefficient G": NaN,
        "T range, from": "175.15 K",
        "T range, to": "506.80 K"
    },
    "Heat Capacity (Ideal Gas)": {
        "Equation Name": "Polynomial Equation",
        "Equation": "Cp = A + B*T + C*T^2 + D*T^3 + E*T^4  where Cp in kJ/kg-mol , T in K",
        "Coefficient A": "1.655000E+01",
        "Coefficient B": "2.245000E-01",
        "Coefficient C": "-4.342000E-05",
        "Coefficient D": "2.914E-08",
        "Coefficient E": "0",
        "Coefficient F": NaN,
        "Coefficient G": NaN,
        "T range, from": NaN,
        "T range, to": NaN
    },
    "Heat Capacity (Liquid)": NaN,
    "Viscosity (Gas, Low P)": NaN,
    "Viscosity (Liquid)": {
        "Equation Name": "Andrade Equation",
        "Equation": "ln (VISL) = A + B/ T  where T in K and VISL in cP.",
        "Coefficient A": "-4.2",
        "Coefficient B": "940.9",
        "Coefficient C": "0",
        "Coefficient D": "0",
        "Coefficient E": NaN,
        "Coefficient F": NaN,
        "Coefficient G": NaN,
        "T range, from": "273.15 K",
        "T range, to": "343.15 K"
    },
    "Themal Conductivity (Gas, Low P)": NaN,
    "Themal Conductivity (Liquid)": NaN,
    "Surface Tension": NaN,
    "Partial Molar Volume (VOLP)": "7.984000E-02 m^3/kg-mol",
    "Solubility Parameters (SOLP)": "1.943209E+04 (J/cm^3)^0.5",
    "SRK accentric factor (WSRK)": "3.205000E-01",
    "COSTALD Characteristic Volume (VSTAR)": "2.262000E-01 m^3/kg-mol",
    "Rackett parameter (ZRA)": "2.552000E-01",
    "Aniline Point (ANP)": NaN,
    "H(formation,ideal gas)at 25 C": "-4.097000E+05 kJ/kg-mol",
    "G(formation,ideal gas) at 25 C": NaN,
    "Heat of Combustion, Gross form (HCB1)": NaN,
    "Heat of Combustion, Net form (HCB2)": NaN,
    "Van der Waals Volume (VDWV)": NaN,
    "Van der Waals Area (VDWA)": NaN,
    "UNIQUAC Ri Parameter (RI)": "2.804200E+00",
    "UNIQUAC Qi Parameter (QI)": "2.576000E+00",
    "Dipole Moment (DM)": "1.700000E+00 debye",
    "Radius of Gyration (GYRAD)": "2.862000E+00",
    "Liquid Density (DENL)": "1.260813E-02 g-mol/cm^3",
    "Temperature of DENL (TDENL)": "2.930000E+02 K",
    "Heat of Vaporizaiton (HVAP)": NaN,
    "Temperature of HVAP (THVAP)": NaN,
    "Surface Tension (SRF)": NaN,
    "Temperature of SRF (TSRF)": NaN,
    "Dielectric Constant (DIEL)": NaN,
    "Temperature of DIEL (TDIEL)": NaN,
    "Refractive Index (RFI)": NaN,
    "Temperature of RFI (TRFI)": NaN,
    "Lower Flammability Limit(FLL)": "3.100000E+00 % in Air",
    "Upper Flammability Limit(FLU)": "1.600000E+01 % in Air",
    "Flash Point (Open Cup Method)": "2.631500E+02 K",
    "Flash Point (Closed Cup Method)": "2.675945E+02 K",
    "Autoignition Temperature (AIGT)": "7.748167E+02 K",
    "NFPA Rating (Health)": "1",
    "NFPA Rating (Fire)": "3",
    "NFPA Rating (Safety)": NaN,
    "Class": "Esters",
    "Subclass": "Aliphatic Ketones",
    "SMILES": "CC(=O)OC"
}