{
    "ID": "1055",
    "Name": "ETHYL FORMATE",
    "Synonyms": "AREGINAL, ETHYL METHANOATE, ETHYLFORMIC ESTER",
    "CAS No.": "109-94-4",
    "Formula": "C3H6O2",
    "Molecular Wt. (WT)": "7.40792E+01",
    "Normal Boiling Point Temp. (TB)": "3.27500E+02 K",
    "Freezing Point Temp. (TF)": "1.93500E+02 K",
    "Triple Point Temp. (TT)": NaN,
    "Triple Point Press. (PT)": NaN,
    "Critical Temperature. (TC)": "5.08500E+02 K",
    "Critical Pressure (PC)": "4.74000E+03 kPa",
    "Critical Volume (VC)": "2.29000E-01 m^3/kg-mol",
    "Critical Compressibility (ZC)": "2.56736E-01",
    "Accentric Factor (ACCF)": "2.85000E-01",
    "Vapor Pressure": {
        "Equation Name": "KDB Correlation Equation",
        "Equation": "ln(Pvp) = A*ln(T) + B/T + C + D*T^2 where Pvp in kPa, T in K",
        "Coefficient A": "-7.242750E+00",
        "Coefficient B": "-5.706465E+03",
        "Coefficient C": "6.340863E+01",
        "Coefficient D": "5.418409E-06",
        "Coefficient E": NaN,
        "Coefficient F": NaN,
        "Coefficient G": NaN,
        "T range, from": "193.55 K",
        "T range, to": "508.40 K"
    },
    "Heat Capacity (Ideal Gas)": {
        "Equation Name": "Polynomial Equation",
        "Equation": "Cp = A + B*T + C*T^2 + D*T^3 + E*T^4  where Cp in kJ/kg-mol , T in K",
        "Coefficient A": "2.467000E+01",
        "Coefficient B": "2.316000E-01",
        "Coefficient C": "-2.120000E-05",
        "Coefficient D": "-5.359E-08",
        "Coefficient E": "0",
        "Coefficient F": NaN,
        "Coefficient G": NaN,
        "T range, from": NaN,
        "T range, to": NaN
    },
    "Heat Capacity (Liquid)": NaN,
    "Viscosity (Gas, Low P)": NaN,
    "Viscosity (Liquid)": {
        "Equation Name": "Andrade Equation",
        "Equation": "ln (VISL) = A + B/ T  where T in K and VISL in cP.",
        "Coefficient A": "-4.081",
        "Coefficient B": "923.1",
        "Coefficient C": "0",
        "Coefficient D": "0",
        "Coefficient E": NaN,
        "Coefficient F": NaN,
        "Coefficient G": NaN,
        "T range, from": "273.15 K",
        "T range, to": "343.15 K"
    },
    "Themal Conductivity (Gas, Low P)": NaN,
    "Themal Conductivity (Liquid)": NaN,
    "Surface Tension": NaN,
    "Partial Molar Volume (VOLP)": "8.088000E-02 m^3/kg-mol",
    "Solubility Parameters (SOLP)": "1.908640E+04 (J/cm^3)^0.5",
    "SRK accentric factor (WSRK)": NaN,
    "COSTALD Characteristic Volume (VSTAR)": NaN,
    "Rackett parameter (ZRA)": NaN,
    "Aniline Point (ANP)": NaN,
    "H(formation,ideal gas)at 25 C": "-3.715000E+05 kJ/kg-mol",
    "G(formation,ideal gas) at 25 C": NaN,
    "Heat of Combustion, Gross form (HCB1)": NaN,
    "Heat of Combustion, Net form (HCB2)": NaN,
    "Van der Waals Volume (VDWV)": NaN,
    "Van der Waals Area (VDWA)": NaN,
    "UNIQUAC Ri Parameter (RI)": "2.804200E+00",
    "UNIQUAC Qi Parameter (QI)": "2.576000E+00",
    "Dipole Moment (DM)": "2.000000E+00 debye",
    "Radius of Gyration (GYRAD)": NaN,
    "Liquid Density (DENL)": "1.251363E-02 g-mol/cm^3",
    "Temperature of DENL (TDENL)": "2.890000E+02 K",
    "Heat of Vaporizaiton (HVAP)": NaN,
    "Temperature of HVAP (THVAP)": NaN,
    "Surface Tension (SRF)": NaN,
    "Temperature of SRF (TSRF)": NaN,
    "Dielectric Constant (DIEL)": NaN,
    "Temperature of DIEL (TDIEL)": NaN,
    "Refractive Index (RFI)": NaN,
    "Temperature of RFI (TRFI)": NaN,
    "Lower Flammability Limit(FLL)": NaN,
    "Upper Flammability Limit(FLU)": NaN,
    "Flash Point (Open Cup Method)": NaN,
    "Flash Point (Closed Cup Method)": NaN,
    "Autoignition Temperature (AIGT)": NaN,
    "NFPA Rating (Health)": 2.0,
    "NFPA Rating (Fire)": 3.0,
    "NFPA Rating (Safety)": NaN,
    "Class": "Esters",
    "Subclass": "Aliphatic Ketones",
    "SMILES": "CCOC=O"
}