{
    "ID": "1059",
    "Name": "ETHYL ACETATE",
    "Synonyms": "ACETIC ETHER, ACETIDIN, ACETOXYETHANE",
    "CAS No.": "141-78-6",
    "Formula": "C4H8O2",
    "Molecular Wt. (WT)": "8.81060E+01",
    "Normal Boiling Point Temp. (TB)": "3.50260E+02 K",
    "Freezing Point Temp. (TF)": "1.89500E+02 K",
    "Triple Point Temp. (TT)": NaN,
    "Triple Point Press. (PT)": NaN,
    "Critical Temperature. (TC)": "5.23300E+02 K",
    "Critical Pressure (PC)": "3.88200E+03 kPa",
    "Critical Volume (VC)": "2.86000E-01 m^3/kg-mol",
    "Critical Compressibility (ZC)": "2.55173E-01",
    "Accentric Factor (ACCF)": "3.62000E-01",
    "Vapor Pressure": {
        "Equation Name": "KDB Correlation Equation",
        "Equation": "ln(Pvp) = A*ln(T) + B/T + C + D*T^2 where Pvp in kPa, T in K",
        "Coefficient A": "-9.837313E+00",
        "Coefficient B": "-6.862428E+03",
        "Coefficient C": "8.094979E+01",
        "Coefficient D": "7.276407E-06",
        "Coefficient E": NaN,
        "Coefficient F": NaN,
        "Coefficient G": NaN,
        "T range, from": "189.60 K",
        "T range, to": "523.30 K"
    },
    "Heat Capacity (Ideal Gas)": {
        "Equation Name": "Polynomial Equation",
        "Equation": "Cp = A + B*T + C*T^2 + D*T^3 + E*T^4  where Cp in kJ/kg-mol , T in K",
        "Coefficient A": "7.235000E+00",
        "Coefficient B": "4.072000E-01",
        "Coefficient C": "-2.092000E-04",
        "Coefficient D": "2.855E-08",
        "Coefficient E": "0",
        "Coefficient F": NaN,
        "Coefficient G": NaN,
        "T range, from": NaN,
        "T range, to": NaN
    },
    "Heat Capacity (Liquid)": NaN,
    "Viscosity (Gas, Low P)": NaN,
    "Viscosity (Liquid)": {
        "Equation Name": "Andrade Equation",
        "Equation": "ln (VISL) = A + B/ T  where T in K and VISL in cP.",
        "Coefficient A": "-4.171",
        "Coefficient B": "984.1",
        "Coefficient C": "0",
        "Coefficient D": "0",
        "Coefficient E": NaN,
        "Coefficient F": NaN,
        "Coefficient G": NaN,
        "T range, from": "273.15 K",
        "T range, to": "353.15 K"
    },
    "Themal Conductivity (Gas, Low P)": NaN,
    "Themal Conductivity (Liquid)": NaN,
    "Surface Tension": NaN,
    "Partial Molar Volume (VOLP)": "9.849000E-02 m^3/kg-mol",
    "Solubility Parameters (SOLP)": "1.820275E+04 (J/cm^3)^0.5",
    "SRK accentric factor (WSRK)": "3.595000E-01",
    "COSTALD Characteristic Volume (VSTAR)": "2.853000E-01 m^3/kg-mol",
    "Rackett parameter (ZRA)": "2.539000E-01",
    "Aniline Point (ANP)": NaN,
    "H(formation,ideal gas)at 25 C": "-4.432000E+05 kJ/kg-mol",
    "G(formation,ideal gas) at 25 C": "-3.276000E+05 kJ/kg-mol",
    "Heat of Combustion, Gross form (HCB1)": NaN,
    "Heat of Combustion, Net form (HCB2)": NaN,
    "Van der Waals Volume (VDWV)": NaN,
    "Van der Waals Area (VDWA)": NaN,
    "UNIQUAC Ri Parameter (RI)": "3.478600E+00",
    "UNIQUAC Qi Parameter (QI)": "3.116000E+00",
    "Dipole Moment (DM)": "1.900000E+00 debye",
    "Radius of Gyration (GYRAD)": "3.348000E+00",
    "Liquid Density (DENL)": "1.022632E-02 g-mol/cm^3",
    "Temperature of DENL (TDENL)": "2.930000E+02 K",
    "Heat of Vaporizaiton (HVAP)": "3.221700E+04 kJ/kg-mol",
    "Temperature of HVAP (THVAP)": "3.498000E+02 K",
    "Surface Tension (SRF)": "3.072000E+01 dyn/cm",
    "Temperature of SRF (TSRF)": "3.232000E+02 K",
    "Dielectric Constant (DIEL)": NaN,
    "Temperature of DIEL (TDIEL)": NaN,
    "Refractive Index (RFI)": NaN,
    "Temperature of RFI (TRFI)": NaN,
    "Lower Flammability Limit(FLL)": "2.200000E+00 % in Air",
    "Upper Flammability Limit(FLU)": "9.000000E+00 % in Air",
    "Flash Point (Open Cup Method)": "2.687056E+02 K",
    "Flash Point (Closed Cup Method)": "2.859278E+02 K",
    "Autoignition Temperature (AIGT)": "6.998167E+02 K",
    "NFPA Rating (Health)": NaN,
    "NFPA Rating (Fire)": "3",
    "NFPA Rating (Safety)": NaN,
    "Class": "Esters",
    "Subclass": "Aliphatic Ketones",
    "SMILES": "CCOC(=O)C"
}