{
    "ID": "1066",
    "Name": "N-PROPYL ACETATE",
    "Synonyms": "PROPYL ACETATE, 1-PROPYL ACETATE, PROPYL ETHANOATE",
    "CAS No.": "109-60-4",
    "Formula": "C5H10O2",
    "Molecular Wt. (WT)": "1.02133E+02",
    "Normal Boiling Point Temp. (TB)": "3.74690E+02 K",
    "Freezing Point Temp. (TF)": "1.80000E+02 K",
    "Triple Point Temp. (TT)": NaN,
    "Triple Point Press. (PT)": NaN,
    "Critical Temperature. (TC)": "5.49700E+02 K",
    "Critical Pressure (PC)": "3.36000E+03 kPa",
    "Critical Volume (VC)": "3.45000E-01 m^3/kg-mol",
    "Critical Compressibility (ZC)": "2.53627E-01",
    "Accentric Factor (ACCF)": "3.91000E-01",
    "Vapor Pressure": {
        "Equation Name": "KDB Correlation Equation",
        "Equation": "ln(Pvp) = A*ln(T) + B/T + C + D*T^2 where Pvp in kPa, T in K",
        "Coefficient A": "-1.194862E+01",
        "Coefficient B": "-7.931973E+03",
        "Coefficient C": "9.543266E+01",
        "Coefficient D": "8.274244E-06",
        "Coefficient E": NaN,
        "Coefficient F": NaN,
        "Coefficient G": NaN,
        "T range, from": "178.15 K",
        "T range, to": "549.40 K"
    },
    "Heat Capacity (Ideal Gas)": {
        "Equation Name": "Polynomial Equation",
        "Equation": "Cp = A + B*T + C*T^2 + D*T^3 + E*T^4  where Cp in kJ/kg-mol , T in K",
        "Coefficient A": "1.542000E+01",
        "Coefficient B": "4.501000E-01",
        "Coefficient C": "-1.686000E-04",
        "Coefficient D": "-1.439E-08",
        "Coefficient E": "0",
        "Coefficient F": NaN,
        "Coefficient G": NaN,
        "T range, from": NaN,
        "T range, to": NaN
    },
    "Heat Capacity (Liquid)": NaN,
    "Viscosity (Gas, Low P)": NaN,
    "Viscosity (Liquid)": {
        "Equation Name": "Andrade Equation",
        "Equation": "ln (VISL) = A + B/ T  where T in K and VISL in cP.",
        "Coefficient A": "-4.406",
        "Coefficient B": "1127",
        "Coefficient C": "0",
        "Coefficient D": "0",
        "Coefficient E": NaN,
        "Coefficient F": NaN,
        "Coefficient G": NaN,
        "T range, from": "273.15 K",
        "T range, to": "383.15 K"
    },
    "Themal Conductivity (Gas, Low P)": NaN,
    "Themal Conductivity (Liquid)": NaN,
    "Surface Tension": NaN,
    "Partial Molar Volume (VOLP)": "1.156600E-01 m^3/kg-mol",
    "Solubility Parameters (SOLP)": "1.773229E+04 (J/cm^3)^0.5",
    "SRK accentric factor (WSRK)": NaN,
    "COSTALD Characteristic Volume (VSTAR)": NaN,
    "Rackett parameter (ZRA)": NaN,
    "Aniline Point (ANP)": NaN,
    "H(formation,ideal gas)at 25 C": "-4.660000E+05 kJ/kg-mol",
    "G(formation,ideal gas) at 25 C": NaN,
    "Heat of Combustion, Gross form (HCB1)": NaN,
    "Heat of Combustion, Net form (HCB2)": NaN,
    "Van der Waals Volume (VDWV)": NaN,
    "Van der Waals Area (VDWA)": NaN,
    "UNIQUAC Ri Parameter (RI)": "4.153000E+00",
    "UNIQUAC Qi Parameter (QI)": "3.656000E+00",
    "Dipole Moment (DM)": "1.800000E+00 debye",
    "Radius of Gyration (GYRAD)": NaN,
    "Liquid Density (DENL)": "8.684772E-03 g-mol/cm^3",
    "Temperature of DENL (TDENL)": "2.930000E+02 K",
    "Heat of Vaporizaiton (HVAP)": NaN,
    "Temperature of HVAP (THVAP)": NaN,
    "Surface Tension (SRF)": NaN,
    "Temperature of SRF (TSRF)": NaN,
    "Dielectric Constant (DIEL)": NaN,
    "Temperature of DIEL (TDIEL)": NaN,
    "Refractive Index (RFI)": NaN,
    "Temperature of RFI (TRFI)": NaN,
    "Lower Flammability Limit(FLL)": "2.000000E+00 % in Air",
    "Upper Flammability Limit(FLU)": "8.000000E+00 % in Air",
    "Flash Point (Open Cup Method)": "2.875945E+02 K",
    "Flash Point (Closed Cup Method)": "2.914833E+02 K",
    "Autoignition Temperature (AIGT)": "7.231500E+02 K",
    "NFPA Rating (Health)": "1",
    "NFPA Rating (Fire)": "3",
    "NFPA Rating (Safety)": NaN,
    "Class": "Esters",
    "Subclass": "Aliphatic Ketones",
    "SMILES": "CCCOC(=O)C"
}