{
    "ID": "1079",
    "Name": "N-BUTYL ACETATE",
    "Synonyms": "BUTYL ACETATE, BUTYL ETHANOATE",
    "CAS No.": "123-86-4",
    "Formula": "C6H12O2",
    "Molecular Wt. (WT)": "1.16160E+02",
    "Normal Boiling Point Temp. (TB)": "3.99200E+02 K",
    "Freezing Point Temp. (TF)": "1.95000E+02 K",
    "Triple Point Temp. (TT)": NaN,
    "Triple Point Press. (PT)": NaN,
    "Critical Temperature. (TC)": "5.79000E+02 K",
    "Critical Pressure (PC)": "3.14000E+03 kPa",
    "Critical Volume (VC)": "4.00000E-01 m^3/kg-mol",
    "Critical Compressibility (ZC)": "2.60900E-01",
    "Accentric Factor (ACCF)": "4.17000E-01",
    "Vapor Pressure": {
        "Equation Name": "KDB Correlation Equation",
        "Equation": "ln(Pvp) = A*ln(T) + B/T + C + D*T^2 where Pvp in kPa, T in K",
        "Coefficient A": "-9.585066E+00",
        "Coefficient B": "-7.790088E+03",
        "Coefficient C": "8.070984E+01",
        "Coefficient D": "5.193475E-06",
        "Coefficient E": NaN,
        "Coefficient F": NaN,
        "Coefficient G": NaN,
        "T range, from": "199.65 K",
        "T range, to": "579.15 K"
    },
    "Heat Capacity (Ideal Gas)": {
        "Equation Name": "Polynomial Equation",
        "Equation": "Cp = A + B*T + C*T^2 + D*T^3 + E*T^4  where Cp in kJ/kg-mol , T in K",
        "Coefficient A": "1.362000E+01",
        "Coefficient B": "5.489000E-01",
        "Coefficient C": "-2.278000E-04",
        "Coefficient D": "7.91E-10",
        "Coefficient E": "0",
        "Coefficient F": NaN,
        "Coefficient G": NaN,
        "T range, from": NaN,
        "T range, to": NaN
    },
    "Heat Capacity (Liquid)": NaN,
    "Viscosity (Gas, Low P)": NaN,
    "Viscosity (Liquid)": {
        "Equation Name": "Andrade Equation",
        "Equation": "ln (VISL) = A + B/ T  where T in K and VISL in cP.",
        "Coefficient A": "-4.546",
        "Coefficient B": "1238",
        "Coefficient C": "0",
        "Coefficient D": "0",
        "Coefficient E": NaN,
        "Coefficient F": NaN,
        "Coefficient G": NaN,
        "T range, from": "273.15 K",
        "T range, to": "323.15 K"
    },
    "Themal Conductivity (Gas, Low P)": NaN,
    "Themal Conductivity (Liquid)": NaN,
    "Surface Tension": NaN,
    "Partial Molar Volume (VOLP)": "1.325500E-01 m^3/kg-mol",
    "Solubility Parameters (SOLP)": "1.758911E+04 (J/cm^3)^0.5",
    "SRK accentric factor (WSRK)": NaN,
    "COSTALD Characteristic Volume (VSTAR)": NaN,
    "Rackett parameter (ZRA)": "2.570000E-01",
    "Aniline Point (ANP)": NaN,
    "H(formation,ideal gas)at 25 C": "-4.868000E+05 kJ/kg-mol",
    "G(formation,ideal gas) at 25 C": NaN,
    "Heat of Combustion, Gross form (HCB1)": NaN,
    "Heat of Combustion, Net form (HCB2)": NaN,
    "Van der Waals Volume (VDWV)": NaN,
    "Van der Waals Area (VDWA)": NaN,
    "UNIQUAC Ri Parameter (RI)": "4.827400E+00",
    "UNIQUAC Qi Parameter (QI)": "4.196000E+00",
    "Dipole Moment (DM)": "1.800000E+00 debye",
    "Radius of Gyration (GYRAD)": "4.170000E+00",
    "Liquid Density (DENL)": "7.730743E-03 g-mol/cm^3",
    "Temperature of DENL (TDENL)": "2.730000E+02 K",
    "Heat of Vaporizaiton (HVAP)": NaN,
    "Temperature of HVAP (THVAP)": NaN,
    "Surface Tension (SRF)": NaN,
    "Temperature of SRF (TSRF)": NaN,
    "Dielectric Constant (DIEL)": NaN,
    "Temperature of DIEL (TDIEL)": NaN,
    "Refractive Index (RFI)": NaN,
    "Temperature of RFI (TRFI)": NaN,
    "Lower Flammability Limit(FLL)": "1.700000E+00 % in Air",
    "Upper Flammability Limit(FLU)": "7.600000E+00 % in Air",
    "Flash Point (Open Cup Method)": "2.970389E+02 K",
    "Flash Point (Closed Cup Method)": "3.103722E+02 K",
    "Autoignition Temperature (AIGT)": "6.775945E+02 K",
    "NFPA Rating (Health)": "1",
    "NFPA Rating (Fire)": "3",
    "NFPA Rating (Safety)": NaN,
    "Class": "Esters",
    "Subclass": "Aliphatic Ketones",
    "SMILES": "CCCCOC(=O)C"
}