{
    "ID": "11",
    "Name": "N-UNDECANE",
    "Synonyms": "UNDECANE, HENDECANE",
    "CAS No.": "1120-21-4",
    "Formula": "C11H24",
    "Molecular Wt. (WT)": "1.56311E+02",
    "Normal Boiling Point Temp. (TB)": "4.69090E+02 K",
    "Freezing Point Temp. (TF)": "2.47500E+02 K",
    "Triple Point Temp. (TT)": NaN,
    "Triple Point Press. (PT)": NaN,
    "Critical Temperature. (TC)": "6.39000E+02 K",
    "Critical Pressure (PC)": "1.98000E+03 kPa",
    "Critical Volume (VC)": "6.89000E-01 m^3/kg-mol",
    "Critical Compressibility (ZC)": "2.56772E-01",
    "Accentric Factor (ACCF)": "5.35000E-01",
    "Vapor Pressure": {
        "Equation Name": "KDB Correlation Equation",
        "Equation": "ln(Pvp) = A*ln(T) + B/T + C + D*T^2 where Pvp in kPa, T in K",
        "Coefficient A": "-1.737222E+01",
        "Coefficient B": "-1.158521E+04",
        "Coefficient C": "1.340873E+02",
        "Coefficient D": "9.453252E-06",
        "Coefficient E": NaN,
        "Coefficient F": NaN,
        "Coefficient G": NaN,
        "T range, from": "247.57 K",
        "T range, to": "638.76 K"
    },
    "Heat Capacity (Ideal Gas)": {
        "Equation Name": "Polynomial Equation",
        "Equation": "Cp = A + B*T + C*T^2 + D*T^3 + E*T^4  where Cp in kJ/kg-mol , T in K",
        "Coefficient A": "1.307966E+02",
        "Coefficient B": "-6.979748E-02",
        "Coefficient C": "2.562406E-03",
        "Coefficient D": "-3.498254E-06",
        "Coefficient E": "1.46698E-09",
        "Coefficient F": NaN,
        "Coefficient G": NaN,
        "T range, from": NaN,
        "T range, to": NaN
    },
    "Heat Capacity (Liquid)": NaN,
    "Viscosity (Gas, Low P)": NaN,
    "Viscosity (Liquid)": {
        "Equation Name": "Andrade Equation",
        "Equation": "ln (VISL) = A + B/ T  where T in K and VISL in cP.",
        "Coefficient A": "-4.571",
        "Coefficient B": "1394",
        "Coefficient C": "0",
        "Coefficient D": "0",
        "Coefficient E": NaN,
        "Coefficient F": NaN,
        "Coefficient G": NaN,
        "T range, from": "248.15 K",
        "T range, to": "473.15 K"
    },
    "Themal Conductivity (Gas, Low P)": NaN,
    "Themal Conductivity (Liquid)": NaN,
    "Surface Tension": NaN,
    "Partial Molar Volume (VOLP)": NaN,
    "Solubility Parameters (SOLP)": "1.593226E+04 (J/cm^3)^0.5",
    "SRK accentric factor (WSRK)": "5.422000E-01",
    "COSTALD Characteristic Volume (VSTAR)": "6.865000E-01 m^3/kg-mol",
    "Rackett parameter (ZRA)": "2.499000E-01",
    "Aniline Point (ANP)": NaN,
    "H(formation,ideal gas)at 25 C": "-2.705000E+05 kJ/kg-mol",
    "G(formation,ideal gas) at 25 C": "4.162000E+04 kJ/kg-mol",
    "Heat of Combustion, Gross form (HCB1)": NaN,
    "Heat of Combustion, Net form (HCB2)": NaN,
    "Van der Waals Volume (VDWV)": NaN,
    "Van der Waals Area (VDWA)": NaN,
    "UNIQUAC Ri Parameter (RI)": NaN,
    "UNIQUAC Qi Parameter (QI)": NaN,
    "Dipole Moment (DM)": "0.000000E+00 debye",
    "Radius of Gyration (GYRAD)": NaN,
    "Liquid Density (DENL)": "4.734164E-03 g-mol/cm^3",
    "Temperature of DENL (TDENL)": "2.930000E+02 K",
    "Heat of Vaporizaiton (HVAP)": "4.150500E+04 kJ/kg-mol",
    "Temperature of HVAP (THVAP)": "4.687000E+02 K",
    "Surface Tension (SRF)": "2.466000E+01 dyn/cm",
    "Temperature of SRF (TSRF)": "2.932000E+02 K",
    "Dielectric Constant (DIEL)": NaN,
    "Temperature of DIEL (TDIEL)": NaN,
    "Refractive Index (RFI)": NaN,
    "Temperature of RFI (TRFI)": NaN,
    "Lower Flammability Limit(FLL)": NaN,
    "Upper Flammability Limit(FLU)": NaN,
    "Flash Point (Open Cup Method)": NaN,
    "Flash Point (Closed Cup Method)": NaN,
    "Autoignition Temperature (AIGT)": NaN,
    "NFPA Rating (Health)": NaN,
    "NFPA Rating (Fire)": NaN,
    "NFPA Rating (Safety)": NaN,
    "Class": "Paraffinic Hydrocarbons",
    "Subclass": "n-Alkanes",
    "SMILES": "CCCCCCCCCCC"
}