{
    "ID": "1167",
    "Name": "VINYL ACETATE",
    "Synonyms": "ETHENYL ETHANOATE, VINYL ETHANOATE, 1-ACETOXYETHYLENE",
    "CAS No.": "108-05-4",
    "Formula": "C4H6O2",
    "Molecular Wt. (WT)": "8.60902E+01",
    "Normal Boiling Point Temp. (TB)": "3.46000E+02 K",
    "Freezing Point Temp. (TF)": "1.73000E+02 K",
    "Triple Point Temp. (TT)": NaN,
    "Triple Point Press. (PT)": NaN,
    "Critical Temperature. (TC)": "5.25000E+02 K",
    "Critical Pressure (PC)": "4.35000E+03 kPa",
    "Critical Volume (VC)": "2.65000E-01 m^3/kg-mol",
    "Critical Compressibility (ZC)": "2.64082E-01",
    "Accentric Factor (ACCF)": "3.40000E-01",
    "Vapor Pressure": {
        "Equation Name": "KDB Correlation Equation",
        "Equation": "ln(Pvp) = A*ln(T) + B/T + C + D*T^2 where Pvp in kPa, T in K",
        "Coefficient A": "-4.867874E+00",
        "Coefficient B": "-5.477728E+03",
        "Coefficient C": "4.862488E+01",
        "Coefficient D": "2.367095E-06",
        "Coefficient E": NaN,
        "Coefficient F": NaN,
        "Coefficient G": NaN,
        "T range, from": "180.35 K",
        "T range, to": "524.00 K"
    },
    "Heat Capacity (Ideal Gas)": {
        "Equation Name": "Polynomial Equation",
        "Equation": "Cp = A + B*T + C*T^2 + D*T^3 + E*T^4  where Cp in kJ/kg-mol , T in K",
        "Coefficient A": "1.516000E+01",
        "Coefficient B": "2.795000E-01",
        "Coefficient C": "-8.805000E-05",
        "Coefficient D": "-1.66E-08",
        "Coefficient E": "0",
        "Coefficient F": NaN,
        "Coefficient G": NaN,
        "T range, from": NaN,
        "T range, to": NaN
    },
    "Heat Capacity (Liquid)": NaN,
    "Viscosity (Gas, Low P)": NaN,
    "Viscosity (Liquid)": NaN,
    "Themal Conductivity (Gas, Low P)": NaN,
    "Themal Conductivity (Liquid)": NaN,
    "Surface Tension": NaN,
    "Partial Molar Volume (VOLP)": "9.310000E-02 m^3/kg-mol",
    "Solubility Parameters (SOLP)": "1.893912E+04 (J/cm^3)^0.5",
    "SRK accentric factor (WSRK)": "3.362000E-01",
    "COSTALD Characteristic Volume (VSTAR)": "2.669000E-01 m^3/kg-mol",
    "Rackett parameter (ZRA)": "2.573000E-01",
    "Aniline Point (ANP)": NaN,
    "H(formation,ideal gas)at 25 C": "-3.160000E+05 kJ/kg-mol",
    "G(formation,ideal gas) at 25 C": NaN,
    "Heat of Combustion, Gross form (HCB1)": NaN,
    "Heat of Combustion, Net form (HCB2)": NaN,
    "Van der Waals Volume (VDWV)": NaN,
    "Van der Waals Area (VDWA)": NaN,
    "UNIQUAC Ri Parameter (RI)": "3.248500E+00",
    "UNIQUAC Qi Parameter (QI)": "2.904000E+00",
    "Dipole Moment (DM)": "1.700000E+00 debye",
    "Radius of Gyration (GYRAD)": "3.089000E+00",
    "Liquid Density (DENL)": "1.082585E-02 g-mol/cm^3",
    "Temperature of DENL (TDENL)": "2.930000E+02 K",
    "Heat of Vaporizaiton (HVAP)": NaN,
    "Temperature of HVAP (THVAP)": NaN,
    "Surface Tension (SRF)": NaN,
    "Temperature of SRF (TSRF)": NaN,
    "Dielectric Constant (DIEL)": NaN,
    "Temperature of DIEL (TDIEL)": NaN,
    "Refractive Index (RFI)": NaN,
    "Temperature of RFI (TRFI)": NaN,
    "Lower Flammability Limit(FLL)": "2.600000E+00 % in Air",
    "Upper Flammability Limit(FLU)": "1.340000E+01 % in Air",
    "Flash Point (Open Cup Method)": "2.653722E+02 K",
    "Flash Point (Closed Cup Method)": "2.681500E+02 K",
    "Autoignition Temperature (AIGT)": "6.998167E+02 K",
    "NFPA Rating (Health)": "2",
    "NFPA Rating (Fire)": "3",
    "NFPA Rating (Safety)": "2",
    "Class": "Esters",
    "Subclass": "Unsaturated or Cyclic Esters",
    "SMILES": "CC(=O)OC=C"
}