{
    "ID": "1169",
    "Name": "ETHYL ACRYLATE",
    "Synonyms": "ETHYL PROPENOATE",
    "CAS No.": "140-88-5",
    "Formula": "C5H8O2",
    "Molecular Wt. (WT)": "1.00117E+02",
    "Normal Boiling Point Temp. (TB)": "3.73000E+02 K",
    "Freezing Point Temp. (TF)": "2.01000E+02 K",
    "Triple Point Temp. (TT)": NaN,
    "Triple Point Press. (PT)": NaN,
    "Critical Temperature. (TC)": "5.52000E+02 K",
    "Critical Pressure (PC)": "3.74000E+03 kPa",
    "Critical Volume (VC)": "3.20000E-01 m^3/kg-mol",
    "Critical Compressibility (ZC)": "2.60763E-01",
    "Accentric Factor (ACCF)": "4.00000E-01",
    "Vapor Pressure": {
        "Equation Name": "KDB Correlation Equation",
        "Equation": "ln(Pvp) = A*ln(T) + B/T + C + D*T^2 where Pvp in kPa, T in K",
        "Coefficient A": "-1.257760E+01",
        "Coefficient B": "-7.845123E+03",
        "Coefficient C": "9.872033E+01",
        "Coefficient D": "1.021285E-05",
        "Coefficient E": NaN,
        "Coefficient F": NaN,
        "Coefficient G": NaN,
        "T range, from": "201.95 K",
        "T range, to": "553.00 K"
    },
    "Heat Capacity (Ideal Gas)": {
        "Equation Name": "Polynomial Equation",
        "Equation": "Cp = A + B*T + C*T^2 + D*T^3 + E*T^4  where Cp in kJ/kg-mol , T in K",
        "Coefficient A": "1.681000E+01",
        "Coefficient B": "3.690000E+00",
        "Coefficient C": "-1.382000E-04",
        "Coefficient D": "-5.732E-09",
        "Coefficient E": "0",
        "Coefficient F": NaN,
        "Coefficient G": NaN,
        "T range, from": NaN,
        "T range, to": NaN
    },
    "Heat Capacity (Liquid)": NaN,
    "Viscosity (Gas, Low P)": NaN,
    "Viscosity (Liquid)": NaN,
    "Themal Conductivity (Gas, Low P)": NaN,
    "Themal Conductivity (Liquid)": NaN,
    "Surface Tension": NaN,
    "Partial Molar Volume (VOLP)": "1.084200E-01 m^3/kg-mol",
    "Solubility Parameters (SOLP)": "1.839298E+04 (J/cm^3)^0.5",
    "SRK accentric factor (WSRK)": "3.908000E-01",
    "COSTALD Characteristic Volume (VSTAR)": "3.245000E-01 m^3/kg-mol",
    "Rackett parameter (ZRA)": NaN,
    "Aniline Point (ANP)": NaN,
    "H(formation,ideal gas)at 25 C": NaN,
    "G(formation,ideal gas) at 25 C": NaN,
    "Heat of Combustion, Gross form (HCB1)": NaN,
    "Heat of Combustion, Net form (HCB2)": NaN,
    "Van der Waals Volume (VDWV)": NaN,
    "Van der Waals Area (VDWA)": NaN,
    "UNIQUAC Ri Parameter (RI)": 3.9229,
    "UNIQUAC Qi Parameter (QI)": 3.444,
    "Dipole Moment (DM)": NaN,
    "Radius of Gyration (GYRAD)": NaN,
    "Liquid Density (DENL)": "9.199237E-03 g-mol/cm^3",
    "Temperature of DENL (TDENL)": "2.930000E+02 K",
    "Heat of Vaporizaiton (HVAP)": NaN,
    "Temperature of HVAP (THVAP)": NaN,
    "Surface Tension (SRF)": NaN,
    "Temperature of SRF (TSRF)": NaN,
    "Dielectric Constant (DIEL)": NaN,
    "Temperature of DIEL (TDIEL)": NaN,
    "Refractive Index (RFI)": NaN,
    "Temperature of RFI (TRFI)": NaN,
    "Lower Flammability Limit(FLL)": NaN,
    "Upper Flammability Limit(FLU)": NaN,
    "Flash Point (Open Cup Method)": NaN,
    "Flash Point (Closed Cup Method)": NaN,
    "Autoignition Temperature (AIGT)": NaN,
    "NFPA Rating (Health)": 2.0,
    "NFPA Rating (Fire)": 3.0,
    "NFPA Rating (Safety)": 2.0,
    "Class": "Esters",
    "Subclass": "Unsaturated or Cyclic Esters",
    "SMILES": "CCOC(=O)C=C"
}