{
    "ID": "1191",
    "Name": "ACETONE",
    "Synonyms": "DIMETHYL KETONE, 2-PROPANONE, KETONE PROPANE",
    "CAS No.": "67-64-1",
    "Formula": "C3H6O",
    "Molecular Wt. (WT)": "5.80798E+01",
    "Normal Boiling Point Temp. (TB)": "3.29200E+02 K",
    "Freezing Point Temp. (TF)": "1.78300E+02 K",
    "Triple Point Temp. (TT)": NaN,
    "Triple Point Press. (PT)": NaN,
    "Critical Temperature. (TC)": "5.08100E+02 K",
    "Critical Pressure (PC)": "4.70000E+03 kPa",
    "Critical Volume (VC)": "2.09000E-01 m^3/kg-mol",
    "Critical Compressibility (ZC)": "2.32519E-01",
    "Accentric Factor (ACCF)": "3.04000E-01",
    "Vapor Pressure": {
        "Equation Name": "KDB Correlation Equation",
        "Equation": "ln(Pvp) = A*ln(T) + B/T + C + D*T^2 where Pvp in kPa, T in K",
        "Coefficient A": "-7.858812E+00",
        "Coefficient B": "-5.784592E+03",
        "Coefficient C": "6.696925E+01",
        "Coefficient D": "7.104956E-06",
        "Coefficient E": NaN,
        "Coefficient F": NaN,
        "Coefficient G": NaN,
        "T range, from": "178.45 K",
        "T range, to": "508.20 K"
    },
    "Heat Capacity (Ideal Gas)": {
        "Equation Name": "Polynomial Equation",
        "Equation": "Cp = A + B*T + C*T^2 + D*T^3 + E*T^4  where Cp in kJ/kg-mol , T in K",
        "Coefficient A": "6.301000E+00",
        "Coefficient B": "2.606000E-01",
        "Coefficient C": "-1.253000E-04",
        "Coefficient D": "2.038E-08",
        "Coefficient E": "0",
        "Coefficient F": NaN,
        "Coefficient G": NaN,
        "T range, from": NaN,
        "T range, to": NaN
    },
    "Heat Capacity (Liquid)": NaN,
    "Viscosity (Gas, Low P)": NaN,
    "Viscosity (Liquid)": {
        "Equation Name": "Andrade Equation",
        "Equation": "ln (VISL) = A + B/ T  where T in K and VISL in cP.",
        "Coefficient A": "-4.033",
        "Coefficient B": "845.6",
        "Coefficient C": "0",
        "Coefficient D": "0",
        "Coefficient E": NaN,
        "Coefficient F": NaN,
        "Coefficient G": NaN,
        "T range, from": "193.15 K",
        "T range, to": "333.15 K"
    },
    "Themal Conductivity (Gas, Low P)": NaN,
    "Themal Conductivity (Liquid)": NaN,
    "Surface Tension": NaN,
    "Partial Molar Volume (VOLP)": "7.405000E-02 m^3/kg-mol",
    "Solubility Parameters (SOLP)": "1.957527E+04 (J/cm^3)^0.5",
    "SRK accentric factor (WSRK)": "3.149000E-01",
    "COSTALD Characteristic Volume (VSTAR)": "2.080000E-01 m^3/kg-mol",
    "Rackett parameter (ZRA)": "2.477000E-01",
    "Aniline Point (ANP)": NaN,
    "H(formation,ideal gas)at 25 C": "-2.177000E+05 kJ/kg-mol",
    "G(formation,ideal gas) at 25 C": "-1.532000E+05 kJ/kg-mol",
    "Heat of Combustion, Gross form (HCB1)": NaN,
    "Heat of Combustion, Net form (HCB2)": NaN,
    "Van der Waals Volume (VDWV)": NaN,
    "Van der Waals Area (VDWA)": NaN,
    "UNIQUAC Ri Parameter (RI)": "2.573500E+00",
    "UNIQUAC Qi Parameter (QI)": "2.336000E+00",
    "Dipole Moment (DM)": "2.900000E+00 debye",
    "Radius of Gyration (GYRAD)": "2.740000E+00",
    "Liquid Density (DENL)": "1.360198E-02 g-mol/cm^3",
    "Temperature of DENL (TDENL)": "2.930000E+02 K",
    "Heat of Vaporizaiton (HVAP)": "2.912100E+04 kJ/kg-mol",
    "Temperature of HVAP (THVAP)": "3.294000E+02 K",
    "Surface Tension (SRF)": "2.402000E+01 dyn/cm",
    "Temperature of SRF (TSRF)": "2.982000E+02 K",
    "Dielectric Constant (DIEL)": NaN,
    "Temperature of DIEL (TDIEL)": NaN,
    "Refractive Index (RFI)": NaN,
    "Temperature of RFI (TRFI)": NaN,
    "Lower Flammability Limit(FLL)": "2.600000E+00 % in Air",
    "Upper Flammability Limit(FLU)": "1.280000E+01 % in Air",
    "Flash Point (Open Cup Method)": "2.553722E+02 K",
    "Flash Point (Closed Cup Method)": "2.575945E+02 K",
    "Autoignition Temperature (AIGT)": "7.381500E+02 K",
    "NFPA Rating (Health)": "1",
    "NFPA Rating (Fire)": "3",
    "NFPA Rating (Safety)": NaN,
    "Class": "Ketones",
    "Subclass": "Aliphatic Ketones",
    "SMILES": "CC(=O)C"
}