{
    "ID": "1192",
    "Name": "METHYL ETHYL KETONE",
    "Synonyms": "2-BUTANONE, MEK, METHYL ACETONE",
    "CAS No.": "78-93-3",
    "Formula": "C4H8O",
    "Molecular Wt. (WT)": "7.21066E+01",
    "Normal Boiling Point Temp. (TB)": "3.52740E+02 K",
    "Freezing Point Temp. (TF)": "1.86480E+02 K",
    "Triple Point Temp. (TT)": NaN,
    "Triple Point Press. (PT)": NaN,
    "Critical Temperature. (TC)": "5.36780E+02 K",
    "Critical Pressure (PC)": "4.20700E+03 kPa",
    "Critical Volume (VC)": "2.67000E-01 m^3/kg-mol",
    "Critical Compressibility (ZC)": "2.51681E-01",
    "Accentric Factor (ACCF)": "3.20000E-01",
    "Vapor Pressure": {
        "Equation Name": "KDB Correlation Equation",
        "Equation": "ln(Pvp) = A*ln(T) + B/T + C + D*T^2 where Pvp in kPa, T in K",
        "Coefficient A": "-7.783651E+00",
        "Coefficient B": "-6.160169E+03",
        "Coefficient C": "6.697868E+01",
        "Coefficient D": "6.139268E-06",
        "Coefficient E": NaN,
        "Coefficient F": NaN,
        "Coefficient G": NaN,
        "T range, from": "186.48 K",
        "T range, to": "535.50 K"
    },
    "Heat Capacity (Ideal Gas)": {
        "Equation Name": "Polynomial Equation",
        "Equation": "Cp = A + B*T + C*T^2 + D*T^3 + E*T^4  where Cp in kJ/kg-mol , T in K",
        "Coefficient A": "4.184608E+01",
        "Coefficient B": "1.880778E-01",
        "Coefficient C": "1.211607E-04",
        "Coefficient D": "-2.056987E-07",
        "Coefficient E": "6.92605E-11",
        "Coefficient F": NaN,
        "Coefficient G": NaN,
        "T range, from": NaN,
        "T range, to": NaN
    },
    "Heat Capacity (Liquid)": NaN,
    "Viscosity (Gas, Low P)": NaN,
    "Viscosity (Liquid)": {
        "Equation Name": "Andrade Equation",
        "Equation": "ln (VISL) = A + B/ T  where T in K and VISL in cP.",
        "Coefficient A": "-4.213",
        "Coefficient B": "975.9",
        "Coefficient C": "0",
        "Coefficient D": "0",
        "Coefficient E": NaN,
        "Coefficient F": NaN,
        "Coefficient G": NaN,
        "T range, from": "273.15 K",
        "T range, to": "353.15 K"
    },
    "Themal Conductivity (Gas, Low P)": NaN,
    "Themal Conductivity (Liquid)": NaN,
    "Surface Tension": NaN,
    "Partial Molar Volume (VOLP)": "9.017000E-02 m^3/kg-mol",
    "Solubility Parameters (SOLP)": "1.883480E+04 (J/cm^3)^0.5",
    "SRK accentric factor (WSRK)": "3.188000E-01",
    "COSTALD Characteristic Volume (VSTAR)": "2.523000E-01 m^3/kg-mol",
    "Rackett parameter (ZRA)": NaN,
    "Aniline Point (ANP)": NaN,
    "H(formation,ideal gas)at 25 C": "-2.385000E+05 kJ/kg-mol",
    "G(formation,ideal gas) at 25 C": "-1.462000E+05 kJ/kg-mol",
    "Heat of Combustion, Gross form (HCB1)": NaN,
    "Heat of Combustion, Net form (HCB2)": NaN,
    "Van der Waals Volume (VDWV)": NaN,
    "Van der Waals Area (VDWA)": NaN,
    "UNIQUAC Ri Parameter (RI)": "3.247900E+00",
    "UNIQUAC Qi Parameter (QI)": "2.876000E+00",
    "Dipole Moment (DM)": "3.300000E+00 debye",
    "Radius of Gyration (GYRAD)": NaN,
    "Liquid Density (DENL)": "1.116403E-02 g-mol/cm^3",
    "Temperature of DENL (TDENL)": "2.930000E+02 K",
    "Heat of Vaporizaiton (HVAP)": "3.121300E+04 kJ/kg-mol",
    "Temperature of HVAP (THVAP)": "3.526000E+02 K",
    "Surface Tension (SRF)": "2.396000E+01 dyn/cm",
    "Temperature of SRF (TSRF)": "2.982000E+02 K",
    "Dielectric Constant (DIEL)": NaN,
    "Temperature of DIEL (TDIEL)": NaN,
    "Refractive Index (RFI)": NaN,
    "Temperature of RFI (TRFI)": NaN,
    "Lower Flammability Limit(FLL)": "1.800000E+00 % in Air",
    "Upper Flammability Limit(FLU)": "1.150000E+01 % in Air",
    "Flash Point (Open Cup Method)": "2.664833E+02 K",
    "Flash Point (Closed Cup Method)": "2.675945E+02 K",
    "Autoignition Temperature (AIGT)": "7.892612E+02 K",
    "NFPA Rating (Health)": "1",
    "NFPA Rating (Fire)": "3",
    "NFPA Rating (Safety)": NaN,
    "Class": "Ketones",
    "Subclass": "Aliphatic Ketones",
    "SMILES": "CCC(=O)C"
}