{
    "ID": "1195",
    "Name": "METHYL ISOPROPYL KETONE",
    "Synonyms": "METHYLBUTANONE, 3-METHYL-2-BUTANONE, MIPK",
    "CAS No.": "563-80-4",
    "Formula": "C5H10O",
    "Molecular Wt. (WT)": "8.61334E+01",
    "Normal Boiling Point Temp. (TB)": "3.67480E+02 K",
    "Freezing Point Temp. (TF)": "1.81000E+02 K",
    "Triple Point Temp. (TT)": NaN,
    "Triple Point Press. (PT)": NaN,
    "Critical Temperature. (TC)": "5.53400E+02 K",
    "Critical Pressure (PC)": "3.85000E+03 kPa",
    "Critical Volume (VC)": "3.10000E-01 m^3/kg-mol",
    "Critical Compressibility (ZC)": "2.59386E-01",
    "Accentric Factor (ACCF)": "3.31000E-01",
    "Vapor Pressure": {
        "Equation Name": "KDB Correlation Equation",
        "Equation": "ln(Pvp) = A*ln(T) + B/T + C + D*T^2 where Pvp in kPa, T in K",
        "Coefficient A": "-2.863269E+01",
        "Coefficient B": "-1.169138E+04",
        "Coefficient C": "2.018508E+02",
        "Coefficient D": "2.744869E-05",
        "Coefficient E": NaN,
        "Coefficient F": NaN,
        "Coefficient G": NaN,
        "T range, from": "181.15 K",
        "T range, to": "553.00 K"
    },
    "Heat Capacity (Ideal Gas)": {
        "Equation Name": "Polynomial Equation",
        "Equation": "Cp = A + B*T + C*T^2 + D*T^3 + E*T^4  where Cp in kJ/kg-mol , T in K",
        "Coefficient A": "-2.914000E+00",
        "Coefficient B": "4.991000E-01",
        "Coefficient C": "-2.935000E-04",
        "Coefficient D": "6.665E-08",
        "Coefficient E": "0",
        "Coefficient F": NaN,
        "Coefficient G": NaN,
        "T range, from": NaN,
        "T range, to": NaN
    },
    "Heat Capacity (Liquid)": NaN,
    "Viscosity (Gas, Low P)": NaN,
    "Viscosity (Liquid)": NaN,
    "Themal Conductivity (Gas, Low P)": NaN,
    "Themal Conductivity (Liquid)": NaN,
    "Surface Tension": NaN,
    "Partial Molar Volume (VOLP)": "1.072700E-01 m^3/kg-mol",
    "Solubility Parameters (SOLP)": "1.748683E+04 (J/cm^3)^0.5",
    "SRK accentric factor (WSRK)": "3.323000E-01",
    "COSTALD Characteristic Volume (VSTAR)": "3.156000E-01 m^3/kg-mol",
    "Rackett parameter (ZRA)": NaN,
    "Aniline Point (ANP)": NaN,
    "H(formation,ideal gas)at 25 C": NaN,
    "G(formation,ideal gas) at 25 C": NaN,
    "Heat of Combustion, Gross form (HCB1)": NaN,
    "Heat of Combustion, Net form (HCB2)": NaN,
    "Van der Waals Volume (VDWV)": NaN,
    "Van der Waals Area (VDWA)": NaN,
    "UNIQUAC Ri Parameter (RI)": "3.921500E+00",
    "UNIQUAC Qi Parameter (QI)": "3.412000E+00",
    "Dipole Moment (DM)": "2.800000E+00 debye",
    "Radius of Gyration (GYRAD)": NaN,
    "Liquid Density (DENL)": "9.322748E-03 g-mol/cm^3",
    "Temperature of DENL (TDENL)": "2.930000E+02 K",
    "Heat of Vaporizaiton (HVAP)": NaN,
    "Temperature of HVAP (THVAP)": NaN,
    "Surface Tension (SRF)": NaN,
    "Temperature of SRF (TSRF)": NaN,
    "Dielectric Constant (DIEL)": NaN,
    "Temperature of DIEL (TDIEL)": NaN,
    "Refractive Index (RFI)": NaN,
    "Temperature of RFI (TRFI)": NaN,
    "Lower Flammability Limit(FLL)": NaN,
    "Upper Flammability Limit(FLU)": NaN,
    "Flash Point (Open Cup Method)": NaN,
    "Flash Point (Closed Cup Method)": NaN,
    "Autoignition Temperature (AIGT)": NaN,
    "NFPA Rating (Health)": NaN,
    "NFPA Rating (Fire)": NaN,
    "NFPA Rating (Safety)": NaN,
    "Class": "Ketones",
    "Subclass": "Aliphatic Ketones",
    "SMILES": "CC(C)C(=O)C"
}