{
    "ID": "1196",
    "Name": "DIETHYL KETONE",
    "Synonyms": "3-PENTANONE, DEK, PROPIONE",
    "CAS No.": "96-22-0",
    "Formula": "C5H10O",
    "Molecular Wt. (WT)": "8.61334E+01",
    "Normal Boiling Point Temp. (TB)": "3.75110E+02 K",
    "Freezing Point Temp. (TF)": "2.34000E+02 K",
    "Triple Point Temp. (TT)": NaN,
    "Triple Point Press. (PT)": NaN,
    "Critical Temperature. (TC)": "5.61460E+02 K",
    "Critical Pressure (PC)": "3.72900E+03 kPa",
    "Critical Volume (VC)": "3.36000E-01 m^3/kg-mol",
    "Critical Compressibility (ZC)": "2.68396E-01",
    "Accentric Factor (ACCF)": "3.44000E-01",
    "Vapor Pressure": {
        "Equation Name": "KDB Correlation Equation",
        "Equation": "ln(Pvp) = A*ln(T) + B/T + C + D*T^2 where Pvp in kPa, T in K",
        "Coefficient A": "-8.162816E+00",
        "Coefficient B": "-6.689601E+03",
        "Coefficient C": "7.003289E+01",
        "Coefficient D": "5.650483E-06",
        "Coefficient E": NaN,
        "Coefficient F": NaN,
        "Coefficient G": NaN,
        "T range, from": "234.18 K",
        "T range, to": "561.00 K"
    },
    "Heat Capacity (Ideal Gas)": {
        "Equation Name": "Polynomial Equation",
        "Equation": "Cp = A + B*T + C*T^2 + D*T^3 + E*T^4  where Cp in kJ/kg-mol , T in K",
        "Coefficient A": "3.001000E+01",
        "Coefficient B": "3.939000E-01",
        "Coefficient C": "-1.907000E-04",
        "Coefficient D": "3.398E-08",
        "Coefficient E": "0",
        "Coefficient F": NaN,
        "Coefficient G": NaN,
        "T range, from": NaN,
        "T range, to": NaN
    },
    "Heat Capacity (Liquid)": NaN,
    "Viscosity (Gas, Low P)": NaN,
    "Viscosity (Liquid)": {
        "Equation Name": "Andrade Equation",
        "Equation": "ln (VISL) = A + B/ T  where T in K and VISL in cP.",
        "Coefficient A": "-4.123",
        "Coefficient B": "979.8",
        "Coefficient C": "0",
        "Coefficient D": "0",
        "Coefficient E": NaN,
        "Coefficient F": NaN,
        "Coefficient G": NaN,
        "T range, from": "273.15 K",
        "T range, to": "373.15 K"
    },
    "Themal Conductivity (Gas, Low P)": NaN,
    "Themal Conductivity (Liquid)": NaN,
    "Surface Tension": NaN,
    "Partial Molar Volume (VOLP)": "1.014100E-01 m^3/kg-mol",
    "Solubility Parameters (SOLP)": "1.793275E+04 (J/cm^3)^0.5",
    "SRK accentric factor (WSRK)": "3.465000E-01",
    "COSTALD Characteristic Volume (VSTAR)": "3.034000E-01 m^3/kg-mol",
    "Rackett parameter (ZRA)": NaN,
    "Aniline Point (ANP)": NaN,
    "H(formation,ideal gas)at 25 C": "-2.588000E+05 kJ/kg-mol",
    "G(formation,ideal gas) at 25 C": "-1.354000E+05 kJ/kg-mol",
    "Heat of Combustion, Gross form (HCB1)": NaN,
    "Heat of Combustion, Net form (HCB2)": NaN,
    "Van der Waals Volume (VDWV)": NaN,
    "Van der Waals Area (VDWA)": NaN,
    "UNIQUAC Ri Parameter (RI)": "3.922300E+00",
    "UNIQUAC Qi Parameter (QI)": "3.416000E+00",
    "Dipole Moment (DM)": "2.700000E+00 debye",
    "Radius of Gyration (GYRAD)": NaN,
    "Liquid Density (DENL)": "9.450457E-03 g-mol/cm^3",
    "Temperature of DENL (TDENL)": "2.930000E+02 K",
    "Heat of Vaporizaiton (HVAP)": NaN,
    "Temperature of HVAP (THVAP)": NaN,
    "Surface Tension (SRF)": NaN,
    "Temperature of SRF (TSRF)": NaN,
    "Dielectric Constant (DIEL)": NaN,
    "Temperature of DIEL (TDIEL)": NaN,
    "Refractive Index (RFI)": NaN,
    "Temperature of RFI (TRFI)": NaN,
    "Lower Flammability Limit(FLL)": NaN,
    "Upper Flammability Limit(FLU)": NaN,
    "Flash Point (Open Cup Method)": NaN,
    "Flash Point (Closed Cup Method)": NaN,
    "Autoignition Temperature (AIGT)": NaN,
    "NFPA Rating (Health)": 1.0,
    "NFPA Rating (Fire)": 3.0,
    "NFPA Rating (Safety)": NaN,
    "Class": "Ketones",
    "Subclass": "Aliphatic Ketones",
    "SMILES": "CCC(=O)CC"
}