{
    "ID": "1199",
    "Name": "METHYL ISOBUTYL KETONE",
    "Synonyms": "4-METHYL-2-PENTANONE, HEXONE, MIBK",
    "CAS No.": "108-10-1",
    "Formula": "C6H12O",
    "Molecular Wt. (WT)": "1.00160E+02",
    "Normal Boiling Point Temp. (TB)": "3.89600E+02 K",
    "Freezing Point Temp. (TF)": "1.89000E+02 K",
    "Triple Point Temp. (TT)": NaN,
    "Triple Point Press. (PT)": NaN,
    "Critical Temperature. (TC)": "5.71000E+02 K",
    "Critical Pressure (PC)": "3.27000E+03 kPa",
    "Critical Volume (VC)": NaN,
    "Critical Compressibility (ZC)": NaN,
    "Accentric Factor (ACCF)": "3.85000E-01",
    "Vapor Pressure": {
        "Equation Name": "KDB Correlation Equation",
        "Equation": "ln(Pvp) = A*ln(T) + B/T + C + D*T^2 where Pvp in kPa, T in K",
        "Coefficient A": "-1.885175E+01",
        "Coefficient B": "-9.838325E+03",
        "Coefficient C": "1.400211E+02",
        "Coefficient D": "1.522361E-05",
        "Coefficient E": NaN,
        "Coefficient F": NaN,
        "Coefficient G": NaN,
        "T range, from": "189.15 K",
        "T range, to": "571.40 K"
    },
    "Heat Capacity (Ideal Gas)": {
        "Equation Name": "Polynomial Equation",
        "Equation": "Cp = A + B*T + C*T^2 + D*T^3 + E*T^4  where Cp in kJ/kg-mol , T in K",
        "Coefficient A": "3.894000E+00",
        "Coefficient B": "5.656000E-01",
        "Coefficient C": "-3.318000E-04",
        "Coefficient D": "8.231E-08",
        "Coefficient E": "0",
        "Coefficient F": NaN,
        "Coefficient G": NaN,
        "T range, from": NaN,
        "T range, to": NaN
    },
    "Heat Capacity (Liquid)": NaN,
    "Viscosity (Gas, Low P)": NaN,
    "Viscosity (Liquid)": NaN,
    "Themal Conductivity (Gas, Low P)": NaN,
    "Themal Conductivity (Liquid)": NaN,
    "Surface Tension": NaN,
    "Partial Molar Volume (VOLP)": "1.258200E-01 m^3/kg-mol",
    "Solubility Parameters (SOLP)": "1.782434E+04 (J/cm^3)^0.5",
    "SRK accentric factor (WSRK)": "3.743000E-01",
    "COSTALD Characteristic Volume (VSTAR)": "3.758000E-01 m^3/kg-mol",
    "Rackett parameter (ZRA)": "2.600000E-01",
    "Aniline Point (ANP)": NaN,
    "H(formation,ideal gas)at 25 C": "-2.840000E+05 kJ/kg-mol",
    "G(formation,ideal gas) at 25 C": NaN,
    "Heat of Combustion, Gross form (HCB1)": NaN,
    "Heat of Combustion, Net form (HCB2)": NaN,
    "Van der Waals Volume (VDWV)": NaN,
    "Van der Waals Area (VDWA)": NaN,
    "UNIQUAC Ri Parameter (RI)": "4.595900E+00",
    "UNIQUAC Qi Parameter (QI)": "3.952000E+00",
    "Dipole Moment (DM)": "2.800000E+00 debye",
    "Radius of Gyration (GYRAD)": "3.740000E+00",
    "Liquid Density (DENL)": "7.997189E-03 g-mol/cm^3",
    "Temperature of DENL (TDENL)": "2.930000E+02 K",
    "Heat of Vaporizaiton (HVAP)": NaN,
    "Temperature of HVAP (THVAP)": NaN,
    "Surface Tension (SRF)": NaN,
    "Temperature of SRF (TSRF)": NaN,
    "Dielectric Constant (DIEL)": NaN,
    "Temperature of DIEL (TDIEL)": NaN,
    "Refractive Index (RFI)": NaN,
    "Temperature of RFI (TRFI)": NaN,
    "Lower Flammability Limit(FLL)": "1.400000E+00 % in Air",
    "Upper Flammability Limit(FLU)": "7.500000E+00 % in Air",
    "Flash Point (Open Cup Method)": "2.959278E+02 K",
    "Flash Point (Closed Cup Method)": "2.970389E+02 K",
    "Autoignition Temperature (AIGT)": "7.298167E+02 K",
    "NFPA Rating (Health)": "2",
    "NFPA Rating (Fire)": "3",
    "NFPA Rating (Safety)": NaN,
    "Class": "Ketones",
    "Subclass": "Aliphatic Ketones",
    "SMILES": "CC(C)CC(=O)C"
}