{
    "ID": "12",
    "Name": "N-DODECANE",
    "Synonyms": "DODECANE, BIHEXYL",
    "CAS No.": "112-40-3",
    "Formula": "C12H26",
    "Molecular Wt. (WT)": "1.70337E+02",
    "Normal Boiling Point Temp. (TB)": "4.89470E+02 K",
    "Freezing Point Temp. (TF)": "2.63500E+02 K",
    "Triple Point Temp. (TT)": NaN,
    "Triple Point Press. (PT)": NaN,
    "Critical Temperature. (TC)": "6.58000E+02 K",
    "Critical Pressure (PC)": "1.82000E+03 kPa",
    "Critical Volume (VC)": "7.54000E-01 m^3/kg-mol",
    "Critical Compressibility (ZC)": "2.50830E-01",
    "Accentric Factor (ACCF)": "5.75000E-01",
    "Vapor Pressure": {
        "Equation Name": "KDB Correlation Equation",
        "Equation": "ln(Pvp) = A*ln(T) + B/T + C + D*T^2 where Pvp in kPa, T in K",
        "Coefficient A": "-1.398384E+01",
        "Coefficient B": "-1.120045E+04",
        "Coefficient C": "1.127229E+02",
        "Coefficient D": "5.788573E-06",
        "Coefficient E": NaN,
        "Coefficient F": NaN,
        "Coefficient G": NaN,
        "T range, from": "263.57 K",
        "T range, to": "658.20 K"
    },
    "Heat Capacity (Ideal Gas)": {
        "Equation Name": "Polynomial Equation",
        "Equation": "Cp = A + B*T + C*T^2 + D*T^3 + E*T^4  where Cp in kJ/kg-mol , T in K",
        "Coefficient A": "1.404051E+02",
        "Coefficient B": "-6.371696E-02",
        "Coefficient C": "2.766194E-03",
        "Coefficient D": "-3.789607E-06",
        "Coefficient E": "1.589714E-09",
        "Coefficient F": NaN,
        "Coefficient G": NaN,
        "T range, from": NaN,
        "T range, to": NaN
    },
    "Heat Capacity (Liquid)": NaN,
    "Viscosity (Gas, Low P)": NaN,
    "Viscosity (Liquid)": {
        "Equation Name": "Andrade Equation",
        "Equation": "ln (VISL) = A + B/ T  where T in K and VISL in cP.",
        "Coefficient A": "-4.562",
        "Coefficient B": "1454",
        "Coefficient C": "0",
        "Coefficient D": "0",
        "Coefficient E": NaN,
        "Coefficient F": NaN,
        "Coefficient G": NaN,
        "T range, from": "268.15 K",
        "T range, to": "493.15 K"
    },
    "Themal Conductivity (Gas, Low P)": NaN,
    "Themal Conductivity (Liquid)": NaN,
    "Surface Tension": NaN,
    "Partial Molar Volume (VOLP)": "2.286000E-01 m^3/kg-mol",
    "Solubility Parameters (SOLP)": "1.603454E+04 (J/cm^3)^0.5",
    "SRK accentric factor (WSRK)": "5.807000E-01",
    "COSTALD Characteristic Volume (VSTAR)": "7.558000E-01 m^3/kg-mol",
    "Rackett parameter (ZRA)": "2.466000E-01",
    "Aniline Point (ANP)": NaN,
    "H(formation,ideal gas)at 25 C": "-2.911000E+05 kJ/kg-mol",
    "G(formation,ideal gas) at 25 C": "5.007000E+04 kJ/kg-mol",
    "Heat of Combustion, Gross form (HCB1)": NaN,
    "Heat of Combustion, Net form (HCB2)": NaN,
    "Van der Waals Volume (VDWV)": NaN,
    "Van der Waals Area (VDWA)": NaN,
    "UNIQUAC Ri Parameter (RI)": "8.546200E+00",
    "UNIQUAC Qi Parameter (QI)": "7.096000E+00",
    "Dipole Moment (DM)": "0.000000E+00 debye",
    "Radius of Gyration (GYRAD)": NaN,
    "Liquid Density (DENL)": "4.391285E-03 g-mol/cm^3",
    "Temperature of DENL (TDENL)": "2.930000E+02 K",
    "Heat of Vaporizaiton (HVAP)": "4.363900E+04 kJ/kg-mol",
    "Temperature of HVAP (THVAP)": "4.886000E+02 K",
    "Surface Tension (SRF)": "2.535000E+01 dyn/cm",
    "Temperature of SRF (TSRF)": "2.932000E+02 K",
    "Dielectric Constant (DIEL)": NaN,
    "Temperature of DIEL (TDIEL)": NaN,
    "Refractive Index (RFI)": NaN,
    "Temperature of RFI (TRFI)": NaN,
    "Lower Flammability Limit(FLL)": NaN,
    "Upper Flammability Limit(FLU)": NaN,
    "Flash Point (Open Cup Method)": NaN,
    "Flash Point (Closed Cup Method)": NaN,
    "Autoignition Temperature (AIGT)": NaN,
    "NFPA Rating (Health)": NaN,
    "NFPA Rating (Fire)": 2.0,
    "NFPA Rating (Safety)": NaN,
    "Class": "Paraffinic Hydrocarbons",
    "Subclass": "n-Alkanes",
    "SMILES": "CCCCCCCCCCCC"
}