{
    "ID": "1214",
    "Name": "ACETOPHENONE",
    "Synonyms": "METHYL PHENYL KETONE, 1-PHENYLETHANONE, ACETYLBENZENE",
    "CAS No.": "98-86-2",
    "Formula": "C8H8O",
    "Molecular Wt. (WT)": "1.20151E+02",
    "Normal Boiling Point Temp. (TB)": "4.75000E+02 K",
    "Freezing Point Temp. (TF)": "2.93000E+02 K",
    "Triple Point Temp. (TT)": NaN,
    "Triple Point Press. (PT)": NaN,
    "Critical Temperature. (TC)": "7.09500E+02 K",
    "Critical Pressure (PC)": "4.06000E+03 kPa",
    "Critical Volume (VC)": "3.86000E-01 m^3/kg-mol",
    "Critical Compressibility (ZC)": "2.65659E-01",
    "Accentric Factor (ACCF)": "4.20000E-01",
    "Vapor Pressure": {
        "Equation Name": "KDB Correlation Equation",
        "Equation": "ln(Pvp) = A*ln(T) + B/T + C + D*T^2 where Pvp in kPa, T in K",
        "Coefficient A": "-8.087692E+00",
        "Coefficient B": "-8.648347E+03",
        "Coefficient C": "7.192726E+01",
        "Coefficient D": "3.326232E-06",
        "Coefficient E": NaN,
        "Coefficient F": NaN,
        "Coefficient G": NaN,
        "T range, from": "292.80 K",
        "T range, to": "705.68 K"
    },
    "Heat Capacity (Ideal Gas)": {
        "Equation Name": "Polynomial Equation",
        "Equation": "Cp = A + B*T + C*T^2 + D*T^3 + E*T^4  where Cp in kJ/kg-mol , T in K",
        "Coefficient A": "-2.958000E+01",
        "Coefficient B": "6.410000E-01",
        "Coefficient C": "-4.071000E-04",
        "Coefficient D": "9.722E-08",
        "Coefficient E": "0",
        "Coefficient F": NaN,
        "Coefficient G": NaN,
        "T range, from": NaN,
        "T range, to": NaN
    },
    "Heat Capacity (Liquid)": NaN,
    "Viscosity (Gas, Low P)": NaN,
    "Viscosity (Liquid)": NaN,
    "Themal Conductivity (Gas, Low P)": NaN,
    "Themal Conductivity (Liquid)": NaN,
    "Surface Tension": NaN,
    "Partial Molar Volume (VOLP)": NaN,
    "Solubility Parameters (SOLP)": NaN,
    "SRK accentric factor (WSRK)": NaN,
    "COSTALD Characteristic Volume (VSTAR)": NaN,
    "Rackett parameter (ZRA)": NaN,
    "Aniline Point (ANP)": NaN,
    "H(formation,ideal gas)at 25 C": "-8.692000E+04 kJ/kg-mol",
    "G(formation,ideal gas) at 25 C": "1.840000E+03 kJ/kg-mol",
    "Heat of Combustion, Gross form (HCB1)": NaN,
    "Heat of Combustion, Net form (HCB2)": NaN,
    "Van der Waals Volume (VDWV)": NaN,
    "Van der Waals Area (VDWA)": NaN,
    "UNIQUAC Ri Parameter (RI)": NaN,
    "UNIQUAC Qi Parameter (QI)": NaN,
    "Dipole Moment (DM)": "3.000000E+00 debye",
    "Radius of Gyration (GYRAD)": NaN,
    "Liquid Density (DENL)": "8.589220E-03 g-mol/cm^3",
    "Temperature of DENL (TDENL)": "2.880000E+02 K",
    "Heat of Vaporizaiton (HVAP)": NaN,
    "Temperature of HVAP (THVAP)": NaN,
    "Surface Tension (SRF)": NaN,
    "Temperature of SRF (TSRF)": NaN,
    "Dielectric Constant (DIEL)": NaN,
    "Temperature of DIEL (TDIEL)": NaN,
    "Refractive Index (RFI)": NaN,
    "Temperature of RFI (TRFI)": NaN,
    "Lower Flammability Limit(FLL)": NaN,
    "Upper Flammability Limit(FLU)": NaN,
    "Flash Point (Open Cup Method)": NaN,
    "Flash Point (Closed Cup Method)": "3.553723E+02 K",
    "Autoignition Temperature (AIGT)": "8.431500E+02 K",
    "NFPA Rating (Health)": "1",
    "NFPA Rating (Fire)": "2",
    "NFPA Rating (Safety)": NaN,
    "Class": "Ketones",
    "Subclass": "Aromatic Ketones",
    "SMILES": "CC(=O)C1=CC=CC=C1"
}