{
    "ID": "1217",
    "Name": "KETENE",
    "Synonyms": "ETHENONE, CARBOMETHENE, METHYLENE KETONE",
    "CAS No.": "463-51-4",
    "Formula": "C2H2O",
    "Molecular Wt. (WT)": "4.20372E+01",
    "Normal Boiling Point Temp. (TB)": "2.32000E+02 K",
    "Freezing Point Temp. (TF)": "1.38000E+02 K",
    "Triple Point Temp. (TT)": NaN,
    "Triple Point Press. (PT)": NaN,
    "Critical Temperature. (TC)": "3.80000E+02 K",
    "Critical Pressure (PC)": "6.50000E+03 kPa",
    "Critical Volume (VC)": "1.45000E-01 m^3/kg-mol",
    "Critical Compressibility (ZC)": "2.98305E-01",
    "Accentric Factor (ACCF)": "2.10000E-01",
    "Vapor Pressure": {
        "Equation Name": "KDB Correlation Equation",
        "Equation": "ln(Pvp) = A*ln(T) + B/T + C + D*T^2 where Pvp in kPa, T in K",
        "Coefficient A": "4.156426E+00",
        "Coefficient B": "-1.877230E+03",
        "Coefficient C": "-9.113182E+00",
        "Coefficient D": "-1.236029E-05",
        "Coefficient E": NaN,
        "Coefficient F": NaN,
        "Coefficient G": NaN,
        "T range, from": "122.00 K",
        "T range, to": "370.00 K"
    },
    "Heat Capacity (Ideal Gas)": {
        "Equation Name": "Polynomial Equation",
        "Equation": "Cp = A + B*T + C*T^2 + D*T^3 + E*T^4  where Cp in kJ/kg-mol , T in K",
        "Coefficient A": "6.385000E+00",
        "Coefficient B": "1.638000E-01",
        "Coefficient C": "-1.084000E-04",
        "Coefficient D": "2.698E-08",
        "Coefficient E": "0",
        "Coefficient F": NaN,
        "Coefficient G": NaN,
        "T range, from": NaN,
        "T range, to": NaN
    },
    "Heat Capacity (Liquid)": NaN,
    "Viscosity (Gas, Low P)": NaN,
    "Viscosity (Liquid)": NaN,
    "Themal Conductivity (Gas, Low P)": NaN,
    "Themal Conductivity (Liquid)": NaN,
    "Surface Tension": NaN,
    "Partial Molar Volume (VOLP)": NaN,
    "Solubility Parameters (SOLP)": "1.599363E+04 (J/cm^3)^0.5",
    "SRK accentric factor (WSRK)": "9.670000E-02",
    "COSTALD Characteristic Volume (VSTAR)": "1.450000E-01 m^3/kg-mol",
    "Rackett parameter (ZRA)": NaN,
    "Aniline Point (ANP)": NaN,
    "H(formation,ideal gas)at 25 C": "-6.113000E+04 kJ/kg-mol",
    "G(formation,ideal gas) at 25 C": "-6.033000E+04 kJ/kg-mol",
    "Heat of Combustion, Gross form (HCB1)": NaN,
    "Heat of Combustion, Net form (HCB2)": NaN,
    "Van der Waals Volume (VDWV)": NaN,
    "Van der Waals Area (VDWA)": NaN,
    "UNIQUAC Ri Parameter (RI)": NaN,
    "UNIQUAC Qi Parameter (QI)": NaN,
    "Dipole Moment (DM)": "1.400000E+00 debye",
    "Radius of Gyration (GYRAD)": NaN,
    "Liquid Density (DENL)": NaN,
    "Temperature of DENL (TDENL)": NaN,
    "Heat of Vaporizaiton (HVAP)": "2.062700E+04 kJ/kg-mol",
    "Temperature of HVAP (THVAP)": "2.320000E+02 K",
    "Surface Tension (SRF)": NaN,
    "Temperature of SRF (TSRF)": NaN,
    "Dielectric Constant (DIEL)": NaN,
    "Temperature of DIEL (TDIEL)": NaN,
    "Refractive Index (RFI)": NaN,
    "Temperature of RFI (TRFI)": NaN,
    "Lower Flammability Limit(FLL)": NaN,
    "Upper Flammability Limit(FLU)": NaN,
    "Flash Point (Open Cup Method)": NaN,
    "Flash Point (Closed Cup Method)": NaN,
    "Autoignition Temperature (AIGT)": NaN,
    "NFPA Rating (Health)": NaN,
    "NFPA Rating (Fire)": NaN,
    "NFPA Rating (Safety)": NaN,
    "Class": "Ketones",
    "Subclass": "Unsaturated or Cyclic Ketones",
    "SMILES": "C=C=O"
}