{
    "ID": "1223",
    "Name": "CYCLOPENTANONE",
    "Synonyms": "ADIPIC KETONE, DUMASIN, KETOCYCLOPENTANE",
    "CAS No.": "120-92-3",
    "Formula": "C5H8O",
    "Molecular Wt. (WT)": "8.41176E+01",
    "Normal Boiling Point Temp. (TB)": "4.03720E+02 K",
    "Freezing Point Temp. (TF)": "2.21800E+02 K",
    "Triple Point Temp. (TT)": NaN,
    "Triple Point Press. (PT)": NaN,
    "Critical Temperature. (TC)": "6.24500E+02 K",
    "Critical Pressure (PC)": "4.60000E+03 kPa",
    "Critical Volume (VC)": "2.68000E-01 m^3/kg-mol",
    "Critical Compressibility (ZC)": "2.37423E-01",
    "Accentric Factor (ACCF)": "3.50000E-01",
    "Vapor Pressure": {
        "Equation Name": "KDB Correlation Equation",
        "Equation": "ln(Pvp) = A*ln(T) + B/T + C + D*T^2 where Pvp in kPa, T in K",
        "Coefficient A": "-1.345659E+01",
        "Coefficient B": "-8.534926E+03",
        "Coefficient C": "1.047611E+02",
        "Coefficient D": "1.069220E-05",
        "Coefficient E": NaN,
        "Coefficient F": NaN,
        "Coefficient G": NaN,
        "T range, from": "221.85 K",
        "T range, to": "626.00 K"
    },
    "Heat Capacity (Ideal Gas)": {
        "Equation Name": "Polynomial Equation",
        "Equation": "Cp = A + B*T + C*T^2 + D*T^3 + E*T^4  where Cp in kJ/kg-mol , T in K",
        "Coefficient A": "-4.064000E+01",
        "Coefficient B": "5.255000E-01",
        "Coefficient C": "-3.124000E-04",
        "Coefficient D": "7.13E-08",
        "Coefficient E": "0",
        "Coefficient F": NaN,
        "Coefficient G": NaN,
        "T range, from": NaN,
        "T range, to": NaN
    },
    "Heat Capacity (Liquid)": NaN,
    "Viscosity (Gas, Low P)": NaN,
    "Viscosity (Liquid)": NaN,
    "Themal Conductivity (Gas, Low P)": NaN,
    "Themal Conductivity (Liquid)": NaN,
    "Surface Tension": NaN,
    "Partial Molar Volume (VOLP)": "8.867000E-02 m^3/kg-mol",
    "Solubility Parameters (SOLP)": "2.066347E+04 (J/cm^3)^0.5",
    "SRK accentric factor (WSRK)": "2.949000E-01",
    "COSTALD Characteristic Volume (VSTAR)": "2.686000E-01 m^3/kg-mol",
    "Rackett parameter (ZRA)": NaN,
    "Aniline Point (ANP)": NaN,
    "H(formation,ideal gas)at 25 C": "-1.928000E+05 kJ/kg-mol",
    "G(formation,ideal gas) at 25 C": NaN,
    "Heat of Combustion, Gross form (HCB1)": NaN,
    "Heat of Combustion, Net form (HCB2)": NaN,
    "Van der Waals Volume (VDWV)": NaN,
    "Van der Waals Area (VDWA)": NaN,
    "UNIQUAC Ri Parameter (RI)": "3.468900E+00",
    "UNIQUAC Qi Parameter (QI)": "2.800000E+00",
    "Dipole Moment (DM)": "3.000000E+00 debye",
    "Radius of Gyration (GYRAD)": NaN,
    "Liquid Density (DENL)": "1.129371E-02 g-mol/cm^3",
    "Temperature of DENL (TDENL)": "2.930000E+02 K",
    "Heat of Vaporizaiton (HVAP)": NaN,
    "Temperature of HVAP (THVAP)": NaN,
    "Surface Tension (SRF)": NaN,
    "Temperature of SRF (TSRF)": NaN,
    "Dielectric Constant (DIEL)": NaN,
    "Temperature of DIEL (TDIEL)": NaN,
    "Refractive Index (RFI)": NaN,
    "Temperature of RFI (TRFI)": NaN,
    "Lower Flammability Limit(FLL)": NaN,
    "Upper Flammability Limit(FLU)": NaN,
    "Flash Point (Open Cup Method)": NaN,
    "Flash Point (Closed Cup Method)": NaN,
    "Autoignition Temperature (AIGT)": NaN,
    "NFPA Rating (Health)": 2.0,
    "NFPA Rating (Fire)": 3.0,
    "NFPA Rating (Safety)": NaN,
    "Class": "Ketones",
    "Subclass": "Unsaturated or Cyclic Ketones",
    "SMILES": "C1CCC(=O)C1"
}