{
    "ID": "1227",
    "Name": "CYCLOHEXANONE",
    "Synonyms": "ANON, HEXANON, NADONE",
    "CAS No.": "108-94-1",
    "Formula": "C6H10O",
    "Molecular Wt. (WT)": "9.81444E+01",
    "Normal Boiling Point Temp. (TB)": "4.28580E+02 K",
    "Freezing Point Temp. (TF)": "2.42000E+02 K",
    "Triple Point Temp. (TT)": NaN,
    "Triple Point Press. (PT)": NaN,
    "Critical Temperature. (TC)": "6.53000E+02 K",
    "Critical Pressure (PC)": "4.00000E+03 kPa",
    "Critical Volume (VC)": NaN,
    "Critical Compressibility (ZC)": NaN,
    "Accentric Factor (ACCF)": "4.42000E-01",
    "Vapor Pressure": {
        "Equation Name": "KDB Correlation Equation",
        "Equation": "ln(Pvp) = A*ln(T) + B/T + C + D*T^2 where Pvp in kPa, T in K",
        "Coefficient A": "-1.351483E+01",
        "Coefficient B": "-8.841883E+03",
        "Coefficient C": "1.051541E+02",
        "Coefficient D": "1.086679E-05",
        "Coefficient E": NaN,
        "Coefficient F": NaN,
        "Coefficient G": NaN,
        "T range, from": "242.00 K",
        "T range, to": "629.15 K"
    },
    "Heat Capacity (Ideal Gas)": {
        "Equation Name": "Polynomial Equation",
        "Equation": "Cp = A + B*T + C*T^2 + D*T^3 + E*T^4  where Cp in kJ/kg-mol , T in K",
        "Coefficient A": "-3.781000E+01",
        "Coefficient B": "5.539000E-01",
        "Coefficient C": "-1.953000E-04",
        "Coefficient D": "-1.534E-08",
        "Coefficient E": "0",
        "Coefficient F": NaN,
        "Coefficient G": NaN,
        "T range, from": NaN,
        "T range, to": NaN
    },
    "Heat Capacity (Liquid)": NaN,
    "Viscosity (Gas, Low P)": NaN,
    "Viscosity (Liquid)": NaN,
    "Themal Conductivity (Gas, Low P)": NaN,
    "Themal Conductivity (Liquid)": NaN,
    "Surface Tension": NaN,
    "Partial Molar Volume (VOLP)": "1.041800E-01 m^3/kg-mol",
    "Solubility Parameters (SOLP)": "2.022778E+04 (J/cm^3)^0.5",
    "SRK accentric factor (WSRK)": "4.409000E-01",
    "COSTALD Characteristic Volume (VSTAR)": "3.271000E-01 m^3/kg-mol",
    "Rackett parameter (ZRA)": "2.465000E-01",
    "Aniline Point (ANP)": NaN,
    "H(formation,ideal gas)at 25 C": "-2.303000E+05 kJ/kg-mol",
    "G(formation,ideal gas) at 25 C": "-9.081000E+04 kJ/kg-mol",
    "Heat of Combustion, Gross form (HCB1)": NaN,
    "Heat of Combustion, Net form (HCB2)": NaN,
    "Van der Waals Volume (VDWV)": NaN,
    "Van der Waals Area (VDWA)": NaN,
    "UNIQUAC Ri Parameter (RI)": "4.143300E+00",
    "UNIQUAC Qi Parameter (QI)": "3.340000E+00",
    "Dipole Moment (DM)": "3.100000E+00 debye",
    "Radius of Gyration (GYRAD)": "3.410000E+00",
    "Liquid Density (DENL)": "9.689803E-03 g-mol/cm^3",
    "Temperature of DENL (TDENL)": "2.880000E+02 K",
    "Heat of Vaporizaiton (HVAP)": "3.974800E+04 kJ/kg-mol",
    "Temperature of HVAP (THVAP)": "4.282000E+02 K",
    "Surface Tension (SRF)": NaN,
    "Temperature of SRF (TSRF)": NaN,
    "Dielectric Constant (DIEL)": NaN,
    "Temperature of DIEL (TDIEL)": NaN,
    "Refractive Index (RFI)": NaN,
    "Temperature of RFI (TRFI)": NaN,
    "Lower Flammability Limit(FLL)": "1.100000E+00 % in Air",
    "Upper Flammability Limit(FLU)": NaN,
    "Flash Point (Open Cup Method)": "3.170389E+02 K",
    "Flash Point (Closed Cup Method)": "3.270389E+02 K",
    "Autoignition Temperature (AIGT)": "6.931500E+02 K",
    "NFPA Rating (Health)": "1",
    "NFPA Rating (Fire)": "2",
    "NFPA Rating (Safety)": NaN,
    "Class": "Ketones",
    "Subclass": "Unsaturated or Cyclic Ketones",
    "SMILES": "C1CCC(=O)CC1"
}