{
    "ID": "1231",
    "Name": "FORMALDEHYDE",
    "Synonyms": "METHANAL, BFV, FANNOFORM",
    "CAS No.": "50-00-0",
    "Formula": "CH2O",
    "Molecular Wt. (WT)": "3.00262E+01",
    "Normal Boiling Point Temp. (TB)": "2.54000E+02 K",
    "Freezing Point Temp. (TF)": "1.56000E+02 K",
    "Triple Point Temp. (TT)": NaN,
    "Triple Point Press. (PT)": NaN,
    "Critical Temperature. (TC)": "4.08000E+02 K",
    "Critical Pressure (PC)": "6.59000E+03 kPa",
    "Critical Volume (VC)": "1.15000E-01 m^3/kg-mol",
    "Critical Compressibility (ZC)": "2.23402E-01",
    "Accentric Factor (ACCF)": "2.53000E-01",
    "Vapor Pressure": {
        "Equation Name": "KDB Correlation Equation",
        "Equation": "ln(Pvp) = A*ln(T) + B/T + C + D*T^2 where Pvp in kPa, T in K",
        "Coefficient A": "-7.881614E+00",
        "Coefficient B": "-4.425491E+03",
        "Coefficient C": "6.484600E+01",
        "Coefficient D": "1.308724E-05",
        "Coefficient E": NaN,
        "Coefficient F": NaN,
        "Coefficient G": NaN,
        "T range, from": "164.15 K",
        "T range, to": "408.00 K"
    },
    "Heat Capacity (Ideal Gas)": {
        "Equation Name": "Polynomial Equation",
        "Equation": "Cp = A + B*T + C*T^2 + D*T^3 + E*T^4  where Cp in kJ/kg-mol , T in K",
        "Coefficient A": "2.348000E+01",
        "Coefficient B": "3.157000E-02",
        "Coefficient C": "2.985000E-05",
        "Coefficient D": "-2.3E-08",
        "Coefficient E": "0",
        "Coefficient F": NaN,
        "Coefficient G": NaN,
        "T range, from": NaN,
        "T range, to": NaN
    },
    "Heat Capacity (Liquid)": NaN,
    "Viscosity (Gas, Low P)": NaN,
    "Viscosity (Liquid)": NaN,
    "Themal Conductivity (Gas, Low P)": NaN,
    "Themal Conductivity (Liquid)": NaN,
    "Surface Tension": NaN,
    "Partial Molar Volume (VOLP)": "3.683000E-02 m^3/kg-mol",
    "Solubility Parameters (SOLP)": "2.112165E+04 (J/cm^3)^0.5",
    "SRK accentric factor (WSRK)": "2.656000E-01",
    "COSTALD Characteristic Volume (VSTAR)": "1.001000E-01 m^3/kg-mol",
    "Rackett parameter (ZRA)": NaN,
    "Aniline Point (ANP)": NaN,
    "H(formation,ideal gas)at 25 C": "-1.160000E+05 kJ/kg-mol",
    "G(formation,ideal gas) at 25 C": "-1.100000E+05 kJ/kg-mol",
    "Heat of Combustion, Gross form (HCB1)": NaN,
    "Heat of Combustion, Net form (HCB2)": NaN,
    "Van der Waals Volume (VDWV)": NaN,
    "Van der Waals Area (VDWA)": NaN,
    "UNIQUAC Ri Parameter (RI)": "1.224800E+00",
    "UNIQUAC Qi Parameter (QI)": "1.256000E+00",
    "Dipole Moment (DM)": "2.300000E+00 debye",
    "Radius of Gyration (GYRAD)": NaN,
    "Liquid Density (DENL)": "2.714296E-02 g-mol/cm^3",
    "Temperature of DENL (TDENL)": "2.530000E+02 K",
    "Heat of Vaporizaiton (HVAP)": "2.301200E+04 kJ/kg-mol",
    "Temperature of HVAP (THVAP)": "2.496000E+02 K",
    "Surface Tension (SRF)": NaN,
    "Temperature of SRF (TSRF)": NaN,
    "Dielectric Constant (DIEL)": NaN,
    "Temperature of DIEL (TDIEL)": NaN,
    "Refractive Index (RFI)": NaN,
    "Temperature of RFI (TRFI)": NaN,
    "Lower Flammability Limit(FLL)": NaN,
    "Upper Flammability Limit(FLU)": NaN,
    "Flash Point (Open Cup Method)": NaN,
    "Flash Point (Closed Cup Method)": NaN,
    "Autoignition Temperature (AIGT)": NaN,
    "NFPA Rating (Health)": 2.0,
    "NFPA Rating (Fire)": 4.0,
    "NFPA Rating (Safety)": NaN,
    "Class": "Aldehydes",
    "Subclass": "Aliphatic Aldehydes",
    "SMILES": "C=O"
}