{
    "ID": "1232",
    "Name": "ACETALDEHYDE",
    "Synonyms": "ETHANAL, ACETIC ALDEHYDE",
    "CAS No.": "75-07-0",
    "Formula": "C2H4O",
    "Molecular Wt. (WT)": "4.40530E+01",
    "Normal Boiling Point Temp. (TB)": "2.93200E+02 K",
    "Freezing Point Temp. (TF)": "1.50000E+02 K",
    "Triple Point Temp. (TT)": NaN,
    "Triple Point Press. (PT)": NaN,
    "Critical Temperature. (TC)": "4.66000E+02 K",
    "Critical Pressure (PC)": "5.57000E+03 kPa",
    "Critical Volume (VC)": "1.54000E-01 m^3/kg-mol",
    "Critical Compressibility (ZC)": "2.21388E-01",
    "Accentric Factor (ACCF)": "3.03000E-01",
    "Vapor Pressure": {
        "Equation Name": "KDB Correlation Equation",
        "Equation": "ln(Pvp) = A*ln(T) + B/T + C + D*T^2 where Pvp in kPa, T in K",
        "Coefficient A": "-1.827131E+01",
        "Coefficient B": "-7.241251E+03",
        "Coefficient C": "1.308048E+02",
        "Coefficient D": "2.633634E-05",
        "Coefficient E": NaN,
        "Coefficient F": NaN,
        "Coefficient G": NaN,
        "T range, from": "150.15 K",
        "T range, to": "461.00 K"
    },
    "Heat Capacity (Ideal Gas)": {
        "Equation Name": "Polynomial Equation",
        "Equation": "Cp = A + B*T + C*T^2 + D*T^3 + E*T^4  where Cp in kJ/kg-mol , T in K",
        "Coefficient A": "7.716000E+00",
        "Coefficient B": "1.823000E-01",
        "Coefficient C": "-1.007000E-04",
        "Coefficient D": "2.38E-08",
        "Coefficient E": "0",
        "Coefficient F": NaN,
        "Coefficient G": NaN,
        "T range, from": NaN,
        "T range, to": NaN
    },
    "Heat Capacity (Liquid)": NaN,
    "Viscosity (Gas, Low P)": NaN,
    "Viscosity (Liquid)": {
        "Equation Name": "Power Law",
        "Equation": "VISL = A *T^B where T in K and VISL in cP.",
        "Coefficient A": "5.14E+07",
        "Coefficient B": "-3.39",
        "Coefficient C": "0",
        "Coefficient D": "0",
        "Coefficient E": NaN,
        "Coefficient F": NaN,
        "Coefficient G": NaN,
        "T range, from": "273.15 K",
        "T range, to": "293.15 K"
    },
    "Themal Conductivity (Gas, Low P)": NaN,
    "Themal Conductivity (Liquid)": NaN,
    "Surface Tension": NaN,
    "Partial Molar Volume (VOLP)": "5.662000E-02 m^3/kg-mol",
    "Solubility Parameters (SOLP)": "2.058574E+04 (J/cm^3)^0.5",
    "SRK accentric factor (WSRK)": "2.647000E-01",
    "COSTALD Characteristic Volume (VSTAR)": "1.519000E-01 m^3/kg-mol",
    "Rackett parameter (ZRA)": "2.390000E-01",
    "Aniline Point (ANP)": NaN,
    "H(formation,ideal gas)at 25 C": "-1.644000E+05 kJ/kg-mol",
    "G(formation,ideal gas) at 25 C": "-1.334000E+05 kJ/kg-mol",
    "Heat of Combustion, Gross form (HCB1)": NaN,
    "Heat of Combustion, Net form (HCB2)": NaN,
    "Van der Waals Volume (VDWV)": NaN,
    "Van der Waals Area (VDWA)": NaN,
    "UNIQUAC Ri Parameter (RI)": "1.899100E+00",
    "UNIQUAC Qi Parameter (QI)": "1.796000E+00",
    "Dipole Moment (DM)": "2.500000E+00 debye",
    "Radius of Gyration (GYRAD)": "2.021000E+00",
    "Liquid Density (DENL)": "1.766055E-02 g-mol/cm^3",
    "Temperature of DENL (TDENL)": "2.930000E+02 K",
    "Heat of Vaporizaiton (HVAP)": "2.573200E+04 kJ/kg-mol",
    "Temperature of HVAP (THVAP)": "2.938000E+02 K",
    "Surface Tension (SRF)": "2.118000E+01 dyn/cm",
    "Temperature of SRF (TSRF)": "2.932000E+02 K",
    "Dielectric Constant (DIEL)": NaN,
    "Temperature of DIEL (TDIEL)": NaN,
    "Refractive Index (RFI)": NaN,
    "Temperature of RFI (TRFI)": NaN,
    "Lower Flammability Limit(FLL)": "4.000000E+00 % in Air",
    "Upper Flammability Limit(FLU)": "6.000000E+01 % in Air",
    "Flash Point (Open Cup Method)": "2.353722E+02 K",
    "Flash Point (Closed Cup Method)": "2.231500E+02 K",
    "Autoignition Temperature (AIGT)": "4.581500E+02 K",
    "NFPA Rating (Health)": "2",
    "NFPA Rating (Fire)": "4",
    "NFPA Rating (Safety)": "2",
    "Class": "Aldehydes",
    "Subclass": "Aliphatic Aldehydes",
    "SMILES": "CC=O"
}