{
    "ID": "1233",
    "Name": "N-PROPIONALDEHYDE",
    "Synonyms": "PROPANAL, PROPIONIC ALDEHYDE, METHYLACETALDEHYDE",
    "CAS No.": "123-38-6",
    "Formula": "C3H6O",
    "Molecular Wt. (WT)": "5.80798E+01",
    "Normal Boiling Point Temp. (TB)": "3.21000E+02 K",
    "Freezing Point Temp. (TF)": "1.93000E+02 K",
    "Triple Point Temp. (TT)": NaN,
    "Triple Point Press. (PT)": NaN,
    "Critical Temperature. (TC)": "5.04400E+02 K",
    "Critical Pressure (PC)": "5.27000E+03 kPa",
    "Critical Volume (VC)": "2.04000E-01 m^3/kg-mol",
    "Critical Compressibility (ZC)": "2.56347E-01",
    "Accentric Factor (ACCF)": "3.13000E-01",
    "Vapor Pressure": {
        "Equation Name": "KDB Correlation Equation",
        "Equation": "ln(Pvp) = A*ln(T) + B/T + C + D*T^2 where Pvp in kPa, T in K",
        "Coefficient A": "-8.221099E+00",
        "Coefficient B": "-5.659814E+03",
        "Coefficient C": "6.886019E+01",
        "Coefficient D": "8.262597E-06",
        "Coefficient E": NaN,
        "Coefficient F": NaN,
        "Coefficient G": NaN,
        "T range, from": "193.15 K",
        "T range, to": "503.80 K"
    },
    "Heat Capacity (Ideal Gas)": {
        "Equation Name": "Polynomial Equation",
        "Equation": "Cp = A + B*T + C*T^2 + D*T^3 + E*T^4  where Cp in kJ/kg-mol , T in K",
        "Coefficient A": "1.172000E+01",
        "Coefficient B": "2.614000E-01",
        "Coefficient C": "-1.300000E-04",
        "Coefficient D": "2.126E-08",
        "Coefficient E": "0",
        "Coefficient F": NaN,
        "Coefficient G": NaN,
        "T range, from": NaN,
        "T range, to": NaN
    },
    "Heat Capacity (Liquid)": NaN,
    "Viscosity (Gas, Low P)": NaN,
    "Viscosity (Liquid)": NaN,
    "Themal Conductivity (Gas, Low P)": NaN,
    "Themal Conductivity (Liquid)": NaN,
    "Surface Tension": NaN,
    "Partial Molar Volume (VOLP)": "7.341000E-02 m^3/kg-mol",
    "Solubility Parameters (SOLP)": "1.945459E+04 (J/cm^3)^0.5",
    "SRK accentric factor (WSRK)": NaN,
    "COSTALD Characteristic Volume (VSTAR)": NaN,
    "Rackett parameter (ZRA)": NaN,
    "Aniline Point (ANP)": NaN,
    "H(formation,ideal gas)at 25 C": "-1.922000E+05 kJ/kg-mol",
    "G(formation,ideal gas) at 25 C": "-1.305000E+05 kJ/kg-mol",
    "Heat of Combustion, Gross form (HCB1)": NaN,
    "Heat of Combustion, Net form (HCB2)": NaN,
    "Van der Waals Volume (VDWV)": NaN,
    "Van der Waals Area (VDWA)": NaN,
    "UNIQUAC Ri Parameter (RI)": "2.573500E+00",
    "UNIQUAC Qi Parameter (QI)": "2.336000E+00",
    "Dipole Moment (DM)": "2.520000E+00 debye",
    "Radius of Gyration (GYRAD)": NaN,
    "Liquid Density (DENL)": "1.372250E-02 g-mol/cm^3",
    "Temperature of DENL (TDENL)": "2.930000E+02 K",
    "Heat of Vaporizaiton (HVAP)": "2.828400E+04 kJ/kg-mol",
    "Temperature of HVAP (THVAP)": "3.220000E+02 K",
    "Surface Tension (SRF)": "2.929000E+01 dyn/cm",
    "Temperature of SRF (TSRF)": "2.982000E+02 K",
    "Dielectric Constant (DIEL)": NaN,
    "Temperature of DIEL (TDIEL)": NaN,
    "Refractive Index (RFI)": NaN,
    "Temperature of RFI (TRFI)": NaN,
    "Lower Flammability Limit(FLL)": NaN,
    "Upper Flammability Limit(FLU)": NaN,
    "Flash Point (Open Cup Method)": NaN,
    "Flash Point (Closed Cup Method)": NaN,
    "Autoignition Temperature (AIGT)": NaN,
    "NFPA Rating (Health)": 2.0,
    "NFPA Rating (Fire)": 3.0,
    "NFPA Rating (Safety)": 1.0,
    "Class": "Aldehydes",
    "Subclass": "Aliphatic Aldehydes",
    "SMILES": "CCC=O"
}