{
    "ID": "1234",
    "Name": "N-BUTYRALDEHYDE",
    "Synonyms": "BUTANAL, BUTAL, BUTYL ALDEHYDE",
    "CAS No.": "123-72-8",
    "Formula": "C4H8O",
    "Molecular Wt. (WT)": "7.21066E+01",
    "Normal Boiling Point Temp. (TB)": "3.47900E+02 K",
    "Freezing Point Temp. (TF)": "1.74000E+02 K",
    "Triple Point Temp. (TT)": NaN,
    "Triple Point Press. (PT)": NaN,
    "Critical Temperature. (TC)": "5.37200E+02 K",
    "Critical Pressure (PC)": "4.32000E+03 kPa",
    "Critical Volume (VC)": "2.58000E-01 m^3/kg-mol",
    "Critical Compressibility (ZC)": "2.49535E-01",
    "Accentric Factor (ACCF)": "3.52000E-01",
    "Vapor Pressure": {
        "Equation Name": "KDB Correlation Equation",
        "Equation": "ln(Pvp) = A*ln(T) + B/T + C + D*T^2 where Pvp in kPa, T in K",
        "Coefficient A": "-1.399761E+01",
        "Coefficient B": "-7.594439E+03",
        "Coefficient C": "1.067436E+02",
        "Coefficient D": "1.322122E-05",
        "Coefficient E": NaN,
        "Coefficient F": NaN,
        "Coefficient G": NaN,
        "T range, from": "176.75 K",
        "T range, to": "535.36 K"
    },
    "Heat Capacity (Ideal Gas)": {
        "Equation Name": "Polynomial Equation",
        "Equation": "Cp = A + B*T + C*T^2 + D*T^3 + E*T^4  where Cp in kJ/kg-mol , T in K",
        "Coefficient A": "1.408000E+01",
        "Coefficient B": "3.457000E-01",
        "Coefficient C": "-1.723000E-04",
        "Coefficient D": "2.887E-08",
        "Coefficient E": "0",
        "Coefficient F": NaN,
        "Coefficient G": NaN,
        "T range, from": NaN,
        "T range, to": NaN
    },
    "Heat Capacity (Liquid)": NaN,
    "Viscosity (Gas, Low P)": NaN,
    "Viscosity (Liquid)": NaN,
    "Themal Conductivity (Gas, Low P)": NaN,
    "Themal Conductivity (Liquid)": NaN,
    "Surface Tension": NaN,
    "Partial Molar Volume (VOLP)": "8.827000E-02 m^3/kg-mol",
    "Solubility Parameters (SOLP)": "1.882253E+04 (J/cm^3)^0.5",
    "SRK accentric factor (WSRK)": NaN,
    "COSTALD Characteristic Volume (VSTAR)": NaN,
    "Rackett parameter (ZRA)": NaN,
    "Aniline Point (ANP)": NaN,
    "H(formation,ideal gas)at 25 C": "-2.052000E+05 kJ/kg-mol",
    "G(formation,ideal gas) at 25 C": "-1.148000E+05 kJ/kg-mol",
    "Heat of Combustion, Gross form (HCB1)": NaN,
    "Heat of Combustion, Net form (HCB2)": NaN,
    "Van der Waals Volume (VDWV)": NaN,
    "Van der Waals Area (VDWA)": NaN,
    "UNIQUAC Ri Parameter (RI)": "3.247900E+00",
    "UNIQUAC Qi Parameter (QI)": "2.867000E+00",
    "Dipole Moment (DM)": "2.600000E+00 debye",
    "Radius of Gyration (GYRAD)": NaN,
    "Liquid Density (DENL)": "1.112242E-02 g-mol/cm^3",
    "Temperature of DENL (TDENL)": "2.930000E+02 K",
    "Heat of Vaporizaiton (HVAP)": "3.150600E+04 kJ/kg-mol",
    "Temperature of HVAP (THVAP)": "3.479000E+02 K",
    "Surface Tension (SRF)": "2.482000E+01 dyn/cm",
    "Temperature of SRF (TSRF)": "2.932000E+02 K",
    "Dielectric Constant (DIEL)": NaN,
    "Temperature of DIEL (TDIEL)": NaN,
    "Refractive Index (RFI)": NaN,
    "Temperature of RFI (TRFI)": NaN,
    "Lower Flammability Limit(FLL)": "2.500000E+00 % in Air",
    "Upper Flammability Limit(FLU)": "1.060000E+01 % in Air",
    "Flash Point (Open Cup Method)": "2.664833E+02 K",
    "Flash Point (Closed Cup Method)": "2.637056E+02 K",
    "Autoignition Temperature (AIGT)": "5.031500E+02 K",
    "NFPA Rating (Health)": "2",
    "NFPA Rating (Fire)": "3",
    "NFPA Rating (Safety)": "1",
    "Class": "Aldehydes",
    "Subclass": "Aliphatic Aldehydes",
    "SMILES": "CCCC=O"
}