{
    "ID": "1235",
    "Name": "ISOBUTYRALDEHYDE",
    "Synonyms": "ISOBUTANAL, ISOPROPYLFORMALDEHYDE, 2-METHYLPROPANAL",
    "CAS No.": "78-84-2",
    "Formula": "C4H8O",
    "Molecular Wt. (WT)": "7.21066E+01",
    "Normal Boiling Point Temp. (TB)": "3.37000E+02 K",
    "Freezing Point Temp. (TF)": "2.08200E+02 K",
    "Triple Point Temp. (TT)": NaN,
    "Triple Point Press. (PT)": NaN,
    "Critical Temperature. (TC)": "5.13000E+02 K",
    "Critical Pressure (PC)": "4.15000E+03 kPa",
    "Critical Volume (VC)": "2.74000E-01 m^3/kg-mol",
    "Critical Compressibility (ZC)": "2.66590E-01",
    "Accentric Factor (ACCF)": "3.50000E-01",
    "Vapor Pressure": {
        "Equation Name": "KDB Correlation Equation",
        "Equation": "ln(Pvp) = A*ln(T) + B/T + C + D*T^2 where Pvp in kPa, T in K",
        "Coefficient A": "-1.674100E+01",
        "Coefficient B": "-7.993007E+03",
        "Coefficient C": "1.237491E+02",
        "Coefficient D": "1.781460E-05",
        "Coefficient E": NaN,
        "Coefficient F": NaN,
        "Coefficient G": NaN,
        "T range, from": "208.15 K",
        "T range, to": "508.46 K"
    },
    "Heat Capacity (Ideal Gas)": {
        "Equation Name": "Polynomial Equation",
        "Equation": "Cp = A + B*T + C*T^2 + D*T^3 + E*T^4  where Cp in kJ/kg-mol , T in K",
        "Coefficient A": "2.446000E+01",
        "Coefficient B": "3.356000E-01",
        "Coefficient C": "-2.057000E-04",
        "Coefficient D": "6.368E-08",
        "Coefficient E": "0",
        "Coefficient F": NaN,
        "Coefficient G": NaN,
        "T range, from": NaN,
        "T range, to": NaN
    },
    "Heat Capacity (Liquid)": NaN,
    "Viscosity (Gas, Low P)": NaN,
    "Viscosity (Liquid)": NaN,
    "Themal Conductivity (Gas, Low P)": NaN,
    "Themal Conductivity (Liquid)": NaN,
    "Surface Tension": NaN,
    "Partial Molar Volume (VOLP)": "9.139000E-02 m^3/kg-mol",
    "Solubility Parameters (SOLP)": "1.818639E+04 (J/cm^3)^0.5",
    "SRK accentric factor (WSRK)": NaN,
    "COSTALD Characteristic Volume (VSTAR)": NaN,
    "Rackett parameter (ZRA)": NaN,
    "Aniline Point (ANP)": NaN,
    "H(formation,ideal gas)at 25 C": "-2.159000E+05 kJ/kg-mol",
    "G(formation,ideal gas) at 25 C": "-1.214000E+05 kJ/kg-mol",
    "Heat of Combustion, Gross form (HCB1)": NaN,
    "Heat of Combustion, Net form (HCB2)": NaN,
    "Van der Waals Volume (VDWV)": NaN,
    "Van der Waals Area (VDWA)": NaN,
    "UNIQUAC Ri Parameter (RI)": 3.2471,
    "UNIQUAC Qi Parameter (QI)": 2.872,
    "Dipole Moment (DM)": NaN,
    "Radius of Gyration (GYRAD)": NaN,
    "Liquid Density (DENL)": "1.094213E-02 g-mol/cm^3",
    "Temperature of DENL (TDENL)": "2.930000E+02 K",
    "Heat of Vaporizaiton (HVAP)": NaN,
    "Temperature of HVAP (THVAP)": NaN,
    "Surface Tension (SRF)": NaN,
    "Temperature of SRF (TSRF)": NaN,
    "Dielectric Constant (DIEL)": NaN,
    "Temperature of DIEL (TDIEL)": NaN,
    "Refractive Index (RFI)": NaN,
    "Temperature of RFI (TRFI)": NaN,
    "Lower Flammability Limit(FLL)": NaN,
    "Upper Flammability Limit(FLU)": NaN,
    "Flash Point (Open Cup Method)": NaN,
    "Flash Point (Closed Cup Method)": NaN,
    "Autoignition Temperature (AIGT)": NaN,
    "NFPA Rating (Health)": 2.0,
    "NFPA Rating (Fire)": 3.0,
    "NFPA Rating (Safety)": 1.0,
    "Class": "Aldehydes",
    "Subclass": "Aliphatic Aldehydes",
    "SMILES": "CC(C)C=O"
}