{
    "ID": "1236",
    "Name": "VALERALDEHYDE",
    "Synonyms": "N-PENTANAL, VALERIC ACID ALDEHYDE, VALERAL",
    "CAS No.": "110-62-3",
    "Formula": "C5H10O",
    "Molecular Wt. (WT)": "8.61334E+01",
    "Normal Boiling Point Temp. (TB)": "3.76000E+02 K",
    "Freezing Point Temp. (TF)": "1.81600E+02 K",
    "Triple Point Temp. (TT)": NaN,
    "Triple Point Press. (PT)": NaN,
    "Critical Temperature. (TC)": "5.66100E+02 K",
    "Critical Pressure (PC)": "3.97000E+03 kPa",
    "Critical Volume (VC)": "3.13000E-01 m^3/kg-mol",
    "Critical Compressibility (ZC)": "2.64001E-01",
    "Accentric Factor (ACCF)": "4.00000E-01",
    "Vapor Pressure": {
        "Equation Name": "KDB Correlation Equation",
        "Equation": "ln(Pvp) = A*ln(T) + B/T + C + D*T^2 where Pvp in kPa, T in K",
        "Coefficient A": "-1.324588E+01",
        "Coefficient B": "-8.057739E+03",
        "Coefficient C": "1.030526E+02",
        "Coefficient D": "1.084525E-05",
        "Coefficient E": NaN,
        "Coefficient F": NaN,
        "Coefficient G": NaN,
        "T range, from": "182.00 K",
        "T range, to": "554.00 K"
    },
    "Heat Capacity (Ideal Gas)": {
        "Equation Name": "Polynomial Equation",
        "Equation": "Cp = A + B*T + C*T^2 + D*T^3 + E*T^4  where Cp in kJ/kg-mol , T in K",
        "Coefficient A": "1.424000E+01",
        "Coefficient B": "4.329000E-01",
        "Coefficient C": "-2.107000E-04",
        "Coefficient D": "3.162E-08",
        "Coefficient E": "0",
        "Coefficient F": NaN,
        "Coefficient G": NaN,
        "T range, from": NaN,
        "T range, to": NaN
    },
    "Heat Capacity (Liquid)": NaN,
    "Viscosity (Gas, Low P)": NaN,
    "Viscosity (Liquid)": NaN,
    "Themal Conductivity (Gas, Low P)": NaN,
    "Themal Conductivity (Liquid)": NaN,
    "Surface Tension": NaN,
    "Partial Molar Volume (VOLP)": NaN,
    "Solubility Parameters (SOLP)": "1.797161E+04 (J/cm^3)^0.5",
    "SRK accentric factor (WSRK)": NaN,
    "COSTALD Characteristic Volume (VSTAR)": NaN,
    "Rackett parameter (ZRA)": NaN,
    "Aniline Point (ANP)": NaN,
    "H(formation,ideal gas)at 25 C": "-2.280000E+05 kJ/kg-mol",
    "G(formation,ideal gas) at 25 C": "-1.084000E+05 kJ/kg-mol",
    "Heat of Combustion, Gross form (HCB1)": NaN,
    "Heat of Combustion, Net form (HCB2)": NaN,
    "Van der Waals Volume (VDWV)": NaN,
    "Van der Waals Area (VDWA)": NaN,
    "UNIQUAC Ri Parameter (RI)": NaN,
    "UNIQUAC Qi Parameter (QI)": NaN,
    "Dipole Moment (DM)": "2.600000E+00 debye",
    "Radius of Gyration (GYRAD)": NaN,
    "Liquid Density (DENL)": "9.404018E-03 g-mol/cm^3",
    "Temperature of DENL (TDENL)": "2.930000E+02 K",
    "Heat of Vaporizaiton (HVAP)": "3.363900E+04 kJ/kg-mol",
    "Temperature of HVAP (THVAP)": "3.760000E+02 K",
    "Surface Tension (SRF)": "2.594000E+01 dyn/cm",
    "Temperature of SRF (TSRF)": "2.932000E+02 K",
    "Dielectric Constant (DIEL)": NaN,
    "Temperature of DIEL (TDIEL)": NaN,
    "Refractive Index (RFI)": NaN,
    "Temperature of RFI (TRFI)": NaN,
    "Lower Flammability Limit(FLL)": NaN,
    "Upper Flammability Limit(FLU)": NaN,
    "Flash Point (Open Cup Method)": NaN,
    "Flash Point (Closed Cup Method)": NaN,
    "Autoignition Temperature (AIGT)": NaN,
    "NFPA Rating (Health)": 1.0,
    "NFPA Rating (Fire)": 3.0,
    "NFPA Rating (Safety)": NaN,
    "Class": "Aldehydes",
    "Subclass": "Aliphatic Aldehydes",
    "SMILES": "CCCCC=O"
}