{
    "ID": "1245",
    "Name": "BENZALDEHYDE",
    "Synonyms": "BENZENECARBONAL, BENZENECARBOXALDEHYDE, BENZOIC ALDEHYDE",
    "CAS No.": "100-52-7",
    "Formula": "C7H6O",
    "Molecular Wt. (WT)": "1.06124E+02",
    "Normal Boiling Point Temp. (TB)": "4.52200E+02 K",
    "Freezing Point Temp. (TF)": "2.47000E+02 K",
    "Triple Point Temp. (TT)": NaN,
    "Triple Point Press. (PT)": NaN,
    "Critical Temperature. (TC)": "6.95000E+02 K",
    "Critical Pressure (PC)": "4.65000E+03 kPa",
    "Critical Volume (VC)": NaN,
    "Critical Compressibility (ZC)": NaN,
    "Accentric Factor (ACCF)": "3.16000E-01",
    "Vapor Pressure": {
        "Equation Name": "KDB Correlation Equation",
        "Equation": "ln(Pvp) = A*ln(T) + B/T + C + D*T^2 where Pvp in kPa, T in K",
        "Coefficient A": "-7.466241E+00",
        "Coefficient B": "-8.179517E+03",
        "Coefficient C": "6.787778E+01",
        "Coefficient D": "2.428505E-06",
        "Coefficient E": NaN,
        "Coefficient F": NaN,
        "Coefficient G": NaN,
        "T range, from": "247.15 K",
        "T range, to": "695.00 K"
    },
    "Heat Capacity (Ideal Gas)": {
        "Equation Name": "Polynomial Equation",
        "Equation": "Cp = A + B*T + C*T^2 + D*T^3 + E*T^4  where Cp in kJ/kg-mol , T in K",
        "Coefficient A": "-1.214000E+01",
        "Coefficient B": "4.961000E-01",
        "Coefficient C": "-2.845000E-04",
        "Coefficient D": "5.167E-08",
        "Coefficient E": "0",
        "Coefficient F": NaN,
        "Coefficient G": NaN,
        "T range, from": NaN,
        "T range, to": NaN
    },
    "Heat Capacity (Liquid)": NaN,
    "Viscosity (Gas, Low P)": NaN,
    "Viscosity (Liquid)": NaN,
    "Themal Conductivity (Gas, Low P)": NaN,
    "Themal Conductivity (Liquid)": NaN,
    "Surface Tension": NaN,
    "Partial Molar Volume (VOLP)": "1.011500E-01 m^3/kg-mol",
    "Solubility Parameters (SOLP)": "2.102756E+04 (J/cm^3)^0.5",
    "SRK accentric factor (WSRK)": NaN,
    "COSTALD Characteristic Volume (VSTAR)": NaN,
    "Rackett parameter (ZRA)": NaN,
    "Aniline Point (ANP)": NaN,
    "H(formation,ideal gas)at 25 C": "-3.680000E+04 kJ/kg-mol",
    "G(formation,ideal gas) at 25 C": "2.240000E+04 kJ/kg-mol",
    "Heat of Combustion, Gross form (HCB1)": NaN,
    "Heat of Combustion, Net form (HCB2)": NaN,
    "Van der Waals Volume (VDWV)": NaN,
    "Van der Waals Area (VDWA)": NaN,
    "UNIQUAC Ri Parameter (RI)": "4.019800E+00",
    "UNIQUAC Qi Parameter (QI)": "3.080000E+00",
    "Dipole Moment (DM)": "2.800000E+00 debye",
    "Radius of Gyration (GYRAD)": NaN,
    "Liquid Density (DENL)": "9.846989E-03 g-mol/cm^3",
    "Temperature of DENL (TDENL)": "2.930000E+02 K",
    "Heat of Vaporizaiton (HVAP)": NaN,
    "Temperature of HVAP (THVAP)": NaN,
    "Surface Tension (SRF)": NaN,
    "Temperature of SRF (TSRF)": NaN,
    "Dielectric Constant (DIEL)": NaN,
    "Temperature of DIEL (TDIEL)": NaN,
    "Refractive Index (RFI)": NaN,
    "Temperature of RFI (TRFI)": NaN,
    "Lower Flammability Limit(FLL)": NaN,
    "Upper Flammability Limit(FLU)": NaN,
    "Flash Point (Open Cup Method)": "3.375945E+02 K",
    "Flash Point (Closed Cup Method)": "3.470389E+02 K",
    "Autoignition Temperature (AIGT)": "4.653723E+02 K",
    "NFPA Rating (Health)": "2",
    "NFPA Rating (Fire)": "2",
    "NFPA Rating (Safety)": NaN,
    "Class": "Aldehydes",
    "Subclass": "Aromatic Aldehydes",
    "SMILES": "C1=CC=C(C=C1)C=O"
}