{
    "ID": "1251",
    "Name": "ACROLEIN",
    "Synonyms": "2-PROPENAL, ACRYLIC ALDEHYDE, AQUALIN",
    "CAS No.": "107-02-8",
    "Formula": "C3H4O",
    "Molecular Wt. (WT)": "5.60640E+01",
    "Normal Boiling Point Temp. (TB)": "3.26000E+02 K",
    "Freezing Point Temp. (TF)": "1.86000E+02 K",
    "Triple Point Temp. (TT)": NaN,
    "Triple Point Press. (PT)": NaN,
    "Critical Temperature. (TC)": "5.06000E+02 K",
    "Critical Pressure (PC)": "5.16000E+03 kPa",
    "Critical Volume (VC)": NaN,
    "Critical Compressibility (ZC)": NaN,
    "Accentric Factor (ACCF)": "3.30000E-01",
    "Vapor Pressure": {
        "Equation Name": "KDB Correlation Equation",
        "Equation": "ln(Pvp) = A*ln(T) + B/T + C + D*T^2 where Pvp in kPa, T in K",
        "Coefficient A": "-1.125253E+01",
        "Coefficient B": "-6.253256E+03",
        "Coefficient C": "8.746703E+01",
        "Coefficient D": "1.363070E-05",
        "Coefficient E": NaN,
        "Coefficient F": NaN,
        "Coefficient G": NaN,
        "T range, from": "185.45 K",
        "T range, to": "506.00 K"
    },
    "Heat Capacity (Ideal Gas)": {
        "Equation Name": "Polynomial Equation",
        "Equation": "Cp = A + B*T + C*T^2 + D*T^3 + E*T^4  where Cp in kJ/kg-mol , T in K",
        "Coefficient A": "1.197000E+01",
        "Coefficient B": "2.106000E-01",
        "Coefficient C": "-1.071000E-04",
        "Coefficient D": "1.906E-08",
        "Coefficient E": "0",
        "Coefficient F": NaN,
        "Coefficient G": NaN,
        "T range, from": NaN,
        "T range, to": NaN
    },
    "Heat Capacity (Liquid)": NaN,
    "Viscosity (Gas, Low P)": NaN,
    "Viscosity (Liquid)": NaN,
    "Themal Conductivity (Gas, Low P)": NaN,
    "Themal Conductivity (Liquid)": NaN,
    "Surface Tension": NaN,
    "Partial Molar Volume (VOLP)": "6.683000E-02 m^3/kg-mol",
    "Solubility Parameters (SOLP)": "2.093756E+04 (J/cm^3)^0.5",
    "SRK accentric factor (WSRK)": NaN,
    "COSTALD Characteristic Volume (VSTAR)": NaN,
    "Rackett parameter (ZRA)": NaN,
    "Aniline Point (ANP)": NaN,
    "H(formation,ideal gas)at 25 C": "-7.092000E+04 kJ/kg-mol",
    "G(formation,ideal gas) at 25 C": "-6.519000E+04 kJ/kg-mol",
    "Heat of Combustion, Gross form (HCB1)": NaN,
    "Heat of Combustion, Net form (HCB2)": NaN,
    "Van der Waals Volume (VDWV)": NaN,
    "Van der Waals Area (VDWA)": NaN,
    "UNIQUAC Ri Parameter (RI)": "2.343400E+00",
    "UNIQUAC Qi Parameter (QI)": "2.124000E+00",
    "Dipole Moment (DM)": "2.900000E+00 debye",
    "Radius of Gyration (GYRAD)": NaN,
    "Liquid Density (DENL)": "1.496504E-02 g-mol/cm^3",
    "Temperature of DENL (TDENL)": "2.930000E+02 K",
    "Heat of Vaporizaiton (HVAP)": NaN,
    "Temperature of HVAP (THVAP)": NaN,
    "Surface Tension (SRF)": NaN,
    "Temperature of SRF (TSRF)": NaN,
    "Dielectric Constant (DIEL)": NaN,
    "Temperature of DIEL (TDIEL)": NaN,
    "Refractive Index (RFI)": NaN,
    "Temperature of RFI (TRFI)": NaN,
    "Lower Flammability Limit(FLL)": "2.800000E+00 % in Air",
    "Upper Flammability Limit(FLU)": "3.100000E+01 % in Air",
    "Flash Point (Open Cup Method)": "2.481500E+02 K",
    "Flash Point (Closed Cup Method)": "2.553722E+02 K",
    "Autoignition Temperature (AIGT)": "5.070389E+02 K",
    "NFPA Rating (Health)": "3",
    "NFPA Rating (Fire)": "3",
    "NFPA Rating (Safety)": "2",
    "Class": "Aldehydes",
    "Subclass": "Unsaturated or Cyclic Aldehydes",
    "SMILES": "C=CC=O"
}