{
    "ID": "1253",
    "Name": "FURFURAL",
    "Synonyms": "2-FURALDEHYDE, 2-FURANCARBOXALDEHYDE, FURANCARBONAL",
    "CAS No.": "98-01-1",
    "Formula": "C5H4O2",
    "Molecular Wt. (WT)": "9.60854E+01",
    "Normal Boiling Point Temp. (TB)": "4.34900E+02 K",
    "Freezing Point Temp. (TF)": "2.36600E+02 K",
    "Triple Point Temp. (TT)": NaN,
    "Triple Point Press. (PT)": NaN,
    "Critical Temperature. (TC)": "6.70000E+02 K",
    "Critical Pressure (PC)": "5.89000E+03 kPa",
    "Critical Volume (VC)": NaN,
    "Critical Compressibility (ZC)": NaN,
    "Accentric Factor (ACCF)": "3.83000E-01",
    "Vapor Pressure": {
        "Equation Name": "KDB Correlation Equation",
        "Equation": "ln(Pvp) = A*ln(T) + B/T + C + D*T^2 where Pvp in kPa, T in K",
        "Coefficient A": "-7.237728E+00",
        "Coefficient B": "-7.830401E+03",
        "Coefficient C": "6.594972E+01",
        "Coefficient D": "3.552026E-06",
        "Coefficient E": NaN,
        "Coefficient F": NaN,
        "Coefficient G": NaN,
        "T range, from": "236.65 K",
        "T range, to": "657.00 K"
    },
    "Heat Capacity (Ideal Gas)": NaN,
    "Heat Capacity (Liquid)": NaN,
    "Viscosity (Gas, Low P)": NaN,
    "Viscosity (Liquid)": {
        "Equation Name": "Power Law",
        "Equation": "VISL = A *T^B where T in K and VISL in cP.",
        "Coefficient A": "3.628E+14",
        "Coefficient B": "-5.815",
        "Coefficient C": "0",
        "Coefficient D": "0",
        "Coefficient E": NaN,
        "Coefficient F": NaN,
        "Coefficient G": NaN,
        "T range, from": "273.15 K",
        "T range, to": "298.15 K"
    },
    "Themal Conductivity (Gas, Low P)": NaN,
    "Themal Conductivity (Liquid)": NaN,
    "Surface Tension": NaN,
    "Partial Molar Volume (VOLP)": "8.323000E-02 m^3/kg-mol",
    "Solubility Parameters (SOLP)": "2.423692E+04 (J/cm^3)^0.5",
    "SRK accentric factor (WSRK)": "3.847000E-01",
    "COSTALD Characteristic Volume (VSTAR)": "2.622000E-01 m^3/kg-mol",
    "Rackett parameter (ZRA)": "2.600000E-01",
    "Aniline Point (ANP)": NaN,
    "H(formation,ideal gas)at 25 C": NaN,
    "G(formation,ideal gas) at 25 C": NaN,
    "Heat of Combustion, Gross form (HCB1)": NaN,
    "Heat of Combustion, Net form (HCB2)": NaN,
    "Van der Waals Volume (VDWV)": NaN,
    "Van der Waals Area (VDWA)": NaN,
    "UNIQUAC Ri Parameter (RI)": "3.168000E+00",
    "UNIQUAC Qi Parameter (QI)": "2.484000E+00",
    "Dipole Moment (DM)": "3.600000E+00 debye",
    "Radius of Gyration (GYRAD)": "3.170000E+00",
    "Liquid Density (DENL)": "1.206219E-02 g-mol/cm^3",
    "Temperature of DENL (TDENL)": "2.930000E+02 K",
    "Heat of Vaporizaiton (HVAP)": NaN,
    "Temperature of HVAP (THVAP)": NaN,
    "Surface Tension (SRF)": NaN,
    "Temperature of SRF (TSRF)": NaN,
    "Dielectric Constant (DIEL)": NaN,
    "Temperature of DIEL (TDIEL)": NaN,
    "Refractive Index (RFI)": NaN,
    "Temperature of RFI (TRFI)": NaN,
    "Lower Flammability Limit(FLL)": NaN,
    "Upper Flammability Limit(FLU)": NaN,
    "Flash Point (Open Cup Method)": NaN,
    "Flash Point (Closed Cup Method)": NaN,
    "Autoignition Temperature (AIGT)": NaN,
    "NFPA Rating (Health)": 1.0,
    "NFPA Rating (Fire)": 2.0,
    "NFPA Rating (Safety)": 1.0,
    "Class": "Aldehydes",
    "Subclass": "Unsaturated or Cyclic Aldehydes",
    "SMILES": "C1=COC(=C1)C=O"
}