{
    "ID": "1255",
    "Name": "METHYLAMINE",
    "Synonyms": "AMINOMETHANE, CARBINAMINE",
    "CAS No.": "74-89-5",
    "Formula": "CH5N",
    "Molecular Wt. (WT)": "3.10572E+01",
    "Normal Boiling Point Temp. (TB)": "2.66830E+02 K",
    "Freezing Point Temp. (TF)": "1.79710E+02 K",
    "Triple Point Temp. (TT)": NaN,
    "Triple Point Press. (PT)": NaN,
    "Critical Temperature. (TC)": "4.30700E+02 K",
    "Critical Pressure (PC)": "7.61400E+03 kPa",
    "Critical Volume (VC)": "1.54500E-01 m^3/kg-mol",
    "Critical Compressibility (ZC)": "3.28496E-01",
    "Accentric Factor (ACCF)": "2.92000E-01",
    "Vapor Pressure": {
        "Equation Name": "KDB Correlation Equation",
        "Equation": "ln(Pvp) = A*ln(T) + B/T + C + D*T^2 where Pvp in kPa, T in K",
        "Coefficient A": "-9.023658E+00",
        "Coefficient B": "-5.250162E+03",
        "Coefficient C": "7.399825E+01",
        "Coefficient D": "9.967256E-06",
        "Coefficient E": NaN,
        "Coefficient F": NaN,
        "Coefficient G": NaN,
        "T range, from": "179.69 K",
        "T range, to": "430.05 K"
    },
    "Heat Capacity (Ideal Gas)": {
        "Equation Name": "Polynomial Equation",
        "Equation": "Cp = A + B*T + C*T^2 + D*T^3 + E*T^4  where Cp in kJ/kg-mol , T in K",
        "Coefficient A": "1.148000E+01",
        "Coefficient B": "1.427000E-01",
        "Coefficient C": "-5.334000E-05",
        "Coefficient D": "4.752E-09",
        "Coefficient E": "0",
        "Coefficient F": NaN,
        "Coefficient G": NaN,
        "T range, from": NaN,
        "T range, to": NaN
    },
    "Heat Capacity (Liquid)": NaN,
    "Viscosity (Gas, Low P)": NaN,
    "Viscosity (Liquid)": NaN,
    "Themal Conductivity (Gas, Low P)": NaN,
    "Themal Conductivity (Liquid)": NaN,
    "Surface Tension": NaN,
    "Partial Molar Volume (VOLP)": "4.686000E-02 m^3/kg-mol",
    "Solubility Parameters (SOLP)": "1.941777E+04 (J/cm^3)^0.5",
    "SRK accentric factor (WSRK)": "2.872000E-01",
    "COSTALD Characteristic Volume (VSTAR)": "1.223000E-01 m^3/kg-mol",
    "Rackett parameter (ZRA)": NaN,
    "Aniline Point (ANP)": NaN,
    "H(formation,ideal gas)at 25 C": "-2.303000E+04 kJ/kg-mol",
    "G(formation,ideal gas) at 25 C": "3.228000E+04 kJ/kg-mol",
    "Heat of Combustion, Gross form (HCB1)": NaN,
    "Heat of Combustion, Net form (HCB2)": NaN,
    "Van der Waals Volume (VDWV)": NaN,
    "Van der Waals Area (VDWA)": NaN,
    "UNIQUAC Ri Parameter (RI)": "1.595900E+00",
    "UNIQUAC Qi Parameter (QI)": "1.544000E+00",
    "Dipole Moment (DM)": "1.300000E+00 debye",
    "Radius of Gyration (GYRAD)": NaN,
    "Liquid Density (DENL)": "2.263565E-02 g-mol/cm^3",
    "Temperature of DENL (TDENL)": "2.600000E+02 K",
    "Heat of Vaporizaiton (HVAP)": "2.598300E+04 kJ/kg-mol",
    "Temperature of HVAP (THVAP)": "2.668000E+02 K",
    "Surface Tension (SRF)": "1.989000E+01 dyn/cm",
    "Temperature of SRF (TSRF)": "2.932000E+02 K",
    "Dielectric Constant (DIEL)": NaN,
    "Temperature of DIEL (TDIEL)": NaN,
    "Refractive Index (RFI)": NaN,
    "Temperature of RFI (TRFI)": NaN,
    "Lower Flammability Limit(FLL)": "4.300000E+00 % in Air",
    "Upper Flammability Limit(FLU)": "2.100000E+01 % in Air",
    "Flash Point (Open Cup Method)": NaN,
    "Flash Point (Closed Cup Method)": NaN,
    "Autoignition Temperature (AIGT)": "7.031500E+02 K",
    "NFPA Rating (Health)": "3",
    "NFPA Rating (Fire)": "4",
    "NFPA Rating (Safety)": NaN,
    "Class": "Amines",
    "Subclass": "Aliphatic Amines",
    "SMILES": "CN"
}