{
    "ID": "1256",
    "Name": "ETHYLAMINE",
    "Synonyms": "ETHANAMINE, AMINOETHANE, MONOETHYLAMINE",
    "CAS No.": "75-04-7",
    "Formula": "C2H7N",
    "Molecular Wt. (WT)": "4.50840E+01",
    "Normal Boiling Point Temp. (TB)": "2.89700E+02 K",
    "Freezing Point Temp. (TF)": "1.92620E+02 K",
    "Triple Point Temp. (TT)": NaN,
    "Triple Point Press. (PT)": NaN,
    "Critical Temperature. (TC)": "4.56000E+02 K",
    "Critical Pressure (PC)": "5.62000E+03 kPa",
    "Critical Volume (VC)": "1.82000E-01 m^3/kg-mol",
    "Critical Compressibility (ZC)": "2.69778E-01",
    "Accentric Factor (ACCF)": "2.89000E-01",
    "Vapor Pressure": {
        "Equation Name": "KDB Correlation Equation",
        "Equation": "ln(Pvp) = A*ln(T) + B/T + C + D*T^2 where Pvp in kPa, T in K",
        "Coefficient A": "-8.695113E+00",
        "Coefficient B": "-5.547243E+03",
        "Coefficient C": "7.239138E+01",
        "Coefficient D": "7.843040E-06",
        "Coefficient E": NaN,
        "Coefficient F": NaN,
        "Coefficient G": NaN,
        "T range, from": "192.15 K",
        "T range, to": "456.15 K"
    },
    "Heat Capacity (Ideal Gas)": {
        "Equation Name": "Polynomial Equation",
        "Equation": "Cp = A + B*T + C*T^2 + D*T^3 + E*T^4  where Cp in kJ/kg-mol , T in K",
        "Coefficient A": "3.693000E+00",
        "Coefficient B": "2.752000E-01",
        "Coefficient C": "-1.583000E-04",
        "Coefficient D": "3.808E-08",
        "Coefficient E": "0",
        "Coefficient F": NaN,
        "Coefficient G": NaN,
        "T range, from": NaN,
        "T range, to": NaN
    },
    "Heat Capacity (Liquid)": NaN,
    "Viscosity (Gas, Low P)": NaN,
    "Viscosity (Liquid)": NaN,
    "Themal Conductivity (Gas, Low P)": NaN,
    "Themal Conductivity (Liquid)": NaN,
    "Surface Tension": NaN,
    "Partial Molar Volume (VOLP)": "6.075000E-02 m^3/kg-mol",
    "Solubility Parameters (SOLP)": "1.786934E+04 (J/cm^3)^0.5",
    "SRK accentric factor (WSRK)": "2.871000E-01",
    "COSTALD Characteristic Volume (VSTAR)": "1.772000E-01 m^3/kg-mol",
    "Rackett parameter (ZRA)": "2.642000E-01",
    "Aniline Point (ANP)": NaN,
    "H(formation,ideal gas)at 25 C": "-4.605000E+04 kJ/kg-mol",
    "G(formation,ideal gas) at 25 C": "3.730000E+04 kJ/kg-mol",
    "Heat of Combustion, Gross form (HCB1)": NaN,
    "Heat of Combustion, Net form (HCB2)": NaN,
    "Van der Waals Volume (VDWV)": NaN,
    "Van der Waals Area (VDWA)": NaN,
    "UNIQUAC Ri Parameter (RI)": "2.270300E+00",
    "UNIQUAC Qi Parameter (QI)": "2.084000E+00",
    "Dipole Moment (DM)": "1.300000E+00 debye",
    "Radius of Gyration (GYRAD)": NaN,
    "Liquid Density (DENL)": "1.514950E-02 g-mol/cm^3",
    "Temperature of DENL (TDENL)": "2.930000E+02 K",
    "Heat of Vaporizaiton (HVAP)": "2.803300E+04 kJ/kg-mol",
    "Temperature of HVAP (THVAP)": "2.898000E+02 K",
    "Surface Tension (SRF)": "1.989000E+01 dyn/cm",
    "Temperature of SRF (TSRF)": "2.932000E+02 K",
    "Dielectric Constant (DIEL)": NaN,
    "Temperature of DIEL (TDIEL)": NaN,
    "Refractive Index (RFI)": NaN,
    "Temperature of RFI (TRFI)": NaN,
    "Lower Flammability Limit(FLL)": "3.500000E+00 % in Air",
    "Upper Flammability Limit(FLU)": "1.400000E+01 % in Air",
    "Flash Point (Open Cup Method)": NaN,
    "Flash Point (Closed Cup Method)": "2.553722E+02 K",
    "Autoignition Temperature (AIGT)": "6.575945E+02 K",
    "NFPA Rating (Health)": "3",
    "NFPA Rating (Fire)": "4",
    "NFPA Rating (Safety)": NaN,
    "Class": "Amines",
    "Subclass": "Aliphatic Amines",
    "SMILES": "CCN"
}