{
    "ID": "1257",
    "Name": "DIMETHYLAMINE",
    "Synonyms": "DMA, N-METHYLMETHANAMINE",
    "CAS No.": "124-40-3",
    "Formula": "C2H7N",
    "Molecular Wt. (WT)": "4.50840E+01",
    "Normal Boiling Point Temp. (TB)": "2.80030E+02 K",
    "Freezing Point Temp. (TF)": "1.80900E+02 K",
    "Triple Point Temp. (TT)": NaN,
    "Triple Point Press. (PT)": NaN,
    "Critical Temperature. (TC)": "4.37220E+02 K",
    "Critical Pressure (PC)": "5.34000E+03 kPa",
    "Critical Volume (VC)": "1.82500E-01 m^3/kg-mol",
    "Critical Compressibility (ZC)": "2.68082E-01",
    "Accentric Factor (ACCF)": "3.02000E-01",
    "Vapor Pressure": {
        "Equation Name": "KDB Correlation Equation",
        "Equation": "ln(Pvp) = A*ln(T) + B/T + C + D*T^2 where Pvp in kPa, T in K",
        "Coefficient A": "-1.088859E+01",
        "Coefficient B": "-5.864856E+03",
        "Coefficient C": "8.604008E+01",
        "Coefficient D": "1.115705E-05",
        "Coefficient E": NaN,
        "Coefficient F": NaN,
        "Coefficient G": NaN,
        "T range, from": "180.96 K",
        "T range, to": "437.65 K"
    },
    "Heat Capacity (Ideal Gas)": {
        "Equation Name": "Polynomial Equation",
        "Equation": "Cp = A + B*T + C*T^2 + D*T^3 + E*T^4  where Cp in kJ/kg-mol , T in K",
        "Coefficient A": "-1.717000E-01",
        "Coefficient B": "2.695000E-01",
        "Coefficient C": "-1.329000E-04",
        "Coefficient D": "2.339E-08",
        "Coefficient E": "0",
        "Coefficient F": NaN,
        "Coefficient G": NaN,
        "T range, from": NaN,
        "T range, to": NaN
    },
    "Heat Capacity (Liquid)": NaN,
    "Viscosity (Gas, Low P)": NaN,
    "Viscosity (Liquid)": NaN,
    "Themal Conductivity (Gas, Low P)": NaN,
    "Themal Conductivity (Liquid)": NaN,
    "Surface Tension": NaN,
    "Partial Molar Volume (VOLP)": "6.627000E-02 m^3/kg-mol",
    "Solubility Parameters (SOLP)": "1.688546E+04 (J/cm^3)^0.5",
    "SRK accentric factor (WSRK)": "3.044000E-01",
    "COSTALD Characteristic Volume (VSTAR)": "1.812000E-01 m^3/kg-mol",
    "Rackett parameter (ZRA)": "2.645000E-01",
    "Aniline Point (ANP)": NaN,
    "H(formation,ideal gas)at 25 C": "-1.880000E+04 kJ/kg-mol",
    "G(formation,ideal gas) at 25 C": "6.800000E+04 kJ/kg-mol",
    "Heat of Combustion, Gross form (HCB1)": NaN,
    "Heat of Combustion, Net form (HCB2)": NaN,
    "Van der Waals Volume (VDWV)": NaN,
    "Van der Waals Area (VDWA)": NaN,
    "UNIQUAC Ri Parameter (RI)": "2.334800E+00",
    "UNIQUAC Qi Parameter (QI)": "2.092000E+00",
    "Dipole Moment (DM)": "1.000000E+00 debye",
    "Radius of Gyration (GYRAD)": "2.264000E+00",
    "Liquid Density (DENL)": "1.455062E-02 g-mol/cm^3",
    "Temperature of DENL (TDENL)": "2.930000E+02 K",
    "Heat of Vaporizaiton (HVAP)": "2.648500E+04 kJ/kg-mol",
    "Temperature of HVAP (THVAP)": "2.801000E+02 K",
    "Surface Tension (SRF)": "2.697000E+01 dyn/cm",
    "Temperature of SRF (TSRF)": "2.932000E+02 K",
    "Dielectric Constant (DIEL)": NaN,
    "Temperature of DIEL (TDIEL)": NaN,
    "Refractive Index (RFI)": NaN,
    "Temperature of RFI (TRFI)": NaN,
    "Lower Flammability Limit(FLL)": NaN,
    "Upper Flammability Limit(FLU)": NaN,
    "Flash Point (Open Cup Method)": NaN,
    "Flash Point (Closed Cup Method)": NaN,
    "Autoignition Temperature (AIGT)": NaN,
    "NFPA Rating (Health)": 3.0,
    "NFPA Rating (Fire)": 4.0,
    "NFPA Rating (Safety)": NaN,
    "Class": "Amines",
    "Subclass": "Aliphatic Amines",
    "SMILES": "CNC"
}