{
    "ID": "1258",
    "Name": "N-PROPYLAMINE",
    "Synonyms": "MONOPROPYLAMINE, PROPANAMINE, 1-AMINOPROPANE",
    "CAS No.": "107-10-8",
    "Formula": "C3H9N",
    "Molecular Wt. (WT)": "5.91108E+01",
    "Normal Boiling Point Temp. (TB)": "3.20370E+02 K",
    "Freezing Point Temp. (TF)": "1.90000E+02 K",
    "Triple Point Temp. (TT)": "1.88360E+02 K",
    "Triple Point Press. (PT)": NaN,
    "Critical Temperature. (TC)": "4.97000E+02 K",
    "Critical Pressure (PC)": "4.72000E+03 kPa",
    "Critical Volume (VC)": "2.33000E-01 m^3/kg-mol",
    "Critical Compressibility (ZC)": "2.66137E-01",
    "Accentric Factor (ACCF)": "3.03000E-01",
    "Vapor Pressure": {
        "Equation Name": "KDB Correlation Equation",
        "Equation": "ln(Pvp) = A*ln(T) + B/T + C + D*T^2 where Pvp in kPa, T in K",
        "Coefficient A": "-5.903781E+00",
        "Coefficient B": "-5.347114E+03",
        "Coefficient C": "5.496722E+01",
        "Coefficient D": "3.593001E-06",
        "Coefficient E": NaN,
        "Coefficient F": NaN,
        "Coefficient G": NaN,
        "T range, from": "190.15 K",
        "T range, to": "496.95 K"
    },
    "Heat Capacity (Ideal Gas)": {
        "Equation Name": "Polynomial Equation",
        "Equation": "Cp = A + B*T + C*T^2 + D*T^3 + E*T^4  where Cp in kJ/kg-mol , T in K",
        "Coefficient A": "6.691000E+00",
        "Coefficient B": "3.498000E-01",
        "Coefficient C": "-1.822000E-04",
        "Coefficient D": "3.586E-08",
        "Coefficient E": "0",
        "Coefficient F": NaN,
        "Coefficient G": NaN,
        "T range, from": NaN,
        "T range, to": NaN
    },
    "Heat Capacity (Liquid)": NaN,
    "Viscosity (Gas, Low P)": NaN,
    "Viscosity (Liquid)": NaN,
    "Themal Conductivity (Gas, Low P)": NaN,
    "Themal Conductivity (Liquid)": NaN,
    "Surface Tension": NaN,
    "Partial Molar Volume (VOLP)": "8.301000E-02 m^3/kg-mol",
    "Solubility Parameters (SOLP)": "1.771183E+04 (J/cm^3)^0.5",
    "SRK accentric factor (WSRK)": NaN,
    "COSTALD Characteristic Volume (VSTAR)": NaN,
    "Rackett parameter (ZRA)": NaN,
    "Aniline Point (ANP)": NaN,
    "H(formation,ideal gas)at 25 C": "-7.243000E+04 kJ/kg-mol",
    "G(formation,ideal gas) at 25 C": "3.982000E+04 kJ/kg-mol",
    "Heat of Combustion, Gross form (HCB1)": NaN,
    "Heat of Combustion, Net form (HCB2)": NaN,
    "Van der Waals Volume (VDWV)": NaN,
    "Van der Waals Area (VDWA)": NaN,
    "UNIQUAC Ri Parameter (RI)": "2.944700E+00",
    "UNIQUAC Qi Parameter (QI)": "2.624000E+00",
    "Dipole Moment (DM)": "1.300000E+00 debye",
    "Radius of Gyration (GYRAD)": NaN,
    "Liquid Density (DENL)": "1.212976E-02 g-mol/cm^3",
    "Temperature of DENL (TDENL)": "2.930000E+02 K",
    "Heat of Vaporizaiton (HVAP)": "2.970600E+04 kJ/kg-mol",
    "Temperature of HVAP (THVAP)": "3.222000E+02 K",
    "Surface Tension (SRF)": "2.237000E+01 dyn/cm",
    "Temperature of SRF (TSRF)": "2.932000E+02 K",
    "Dielectric Constant (DIEL)": NaN,
    "Temperature of DIEL (TDIEL)": NaN,
    "Refractive Index (RFI)": NaN,
    "Temperature of RFI (TRFI)": NaN,
    "Lower Flammability Limit(FLL)": NaN,
    "Upper Flammability Limit(FLU)": NaN,
    "Flash Point (Open Cup Method)": NaN,
    "Flash Point (Closed Cup Method)": NaN,
    "Autoignition Temperature (AIGT)": NaN,
    "NFPA Rating (Health)": 3.0,
    "NFPA Rating (Fire)": 3.0,
    "NFPA Rating (Safety)": NaN,
    "Class": "Amines",
    "Subclass": "Aliphatic Amines",
    "SMILES": "CCCN"
}