{
    "ID": "1259",
    "Name": "ISOPROPYLAMINE",
    "Synonyms": "SEC-PROPYLAMINE, 1-METHYLETHYLAMINE, 2-AMINOPROPANE",
    "CAS No.": "75-31-0",
    "Formula": "C3H9N",
    "Molecular Wt. (WT)": "5.91108E+01",
    "Normal Boiling Point Temp. (TB)": "3.04910E+02 K",
    "Freezing Point Temp. (TF)": "1.78010E+02 K",
    "Triple Point Temp. (TT)": NaN,
    "Triple Point Press. (PT)": NaN,
    "Critical Temperature. (TC)": "4.71800E+02 K",
    "Critical Pressure (PC)": "4.54000E+03 kPa",
    "Critical Volume (VC)": "2.21000E-01 m^3/kg-mol",
    "Critical Compressibility (ZC)": "2.55772E-01",
    "Accentric Factor (ACCF)": "2.91000E-01",
    "Vapor Pressure": {
        "Equation Name": "KDB Correlation Equation",
        "Equation": "ln(Pvp) = A*ln(T) + B/T + C + D*T^2 where Pvp in kPa, T in K",
        "Coefficient A": "-1.188815E+01",
        "Coefficient B": "-6.476235E+03",
        "Coefficient C": "9.279411E+01",
        "Coefficient D": "1.143035E-05",
        "Coefficient E": NaN,
        "Coefficient F": NaN,
        "Coefficient G": NaN,
        "T range, from": "177.95 K",
        "T range, to": "471.85 K"
    },
    "Heat Capacity (Ideal Gas)": {
        "Equation Name": "Polynomial Equation",
        "Equation": "Cp = A + B*T + C*T^2 + D*T^3 + E*T^4  where Cp in kJ/kg-mol , T in K",
        "Coefficient A": "-7.486000E+00",
        "Coefficient B": "4.175000E-01",
        "Coefficient C": "-2.826000E-04",
        "Coefficient D": "8.348E-08",
        "Coefficient E": "0",
        "Coefficient F": NaN,
        "Coefficient G": NaN,
        "T range, from": NaN,
        "T range, to": NaN
    },
    "Heat Capacity (Liquid)": NaN,
    "Viscosity (Gas, Low P)": NaN,
    "Viscosity (Liquid)": NaN,
    "Themal Conductivity (Gas, Low P)": NaN,
    "Themal Conductivity (Liquid)": NaN,
    "Surface Tension": NaN,
    "Partial Molar Volume (VOLP)": "8.666000E-02 m^3/kg-mol",
    "Solubility Parameters (SOLP)": "1.651727E+04 (J/cm^3)^0.5",
    "SRK accentric factor (WSRK)": NaN,
    "COSTALD Characteristic Volume (VSTAR)": NaN,
    "Rackett parameter (ZRA)": NaN,
    "Aniline Point (ANP)": NaN,
    "H(formation,ideal gas)at 25 C": "-8.382000E+04 kJ/kg-mol",
    "G(formation,ideal gas) at 25 C": NaN,
    "Heat of Combustion, Gross form (HCB1)": NaN,
    "Heat of Combustion, Net form (HCB2)": NaN,
    "Van der Waals Volume (VDWV)": NaN,
    "Van der Waals Area (VDWA)": NaN,
    "UNIQUAC Ri Parameter (RI)": 2.9439,
    "UNIQUAC Qi Parameter (QI)": 2.62,
    "Dipole Moment (DM)": NaN,
    "Radius of Gyration (GYRAD)": NaN,
    "Liquid Density (DENL)": "1.163916E-02 g-mol/cm^3",
    "Temperature of DENL (TDENL)": "2.930000E+02 K",
    "Heat of Vaporizaiton (HVAP)": NaN,
    "Temperature of HVAP (THVAP)": NaN,
    "Surface Tension (SRF)": NaN,
    "Temperature of SRF (TSRF)": NaN,
    "Dielectric Constant (DIEL)": NaN,
    "Temperature of DIEL (TDIEL)": NaN,
    "Refractive Index (RFI)": NaN,
    "Temperature of RFI (TRFI)": NaN,
    "Lower Flammability Limit(FLL)": "2.300000E+00 % in Air",
    "Upper Flammability Limit(FLU)": "1.200000E+01 % in Air",
    "Flash Point (Open Cup Method)": NaN,
    "Flash Point (Closed Cup Method)": "2.470389E+02 K",
    "Autoignition Temperature (AIGT)": "6.753723E+02 K",
    "NFPA Rating (Health)": "3",
    "NFPA Rating (Fire)": "4",
    "NFPA Rating (Safety)": NaN,
    "Class": "Amines",
    "Subclass": "Aliphatic Amines",
    "SMILES": "CC(C)N"
}