{
    "ID": "1260",
    "Name": "TRIMETHYLAMINE",
    "Synonyms": "N,N-DIMETHYL-METHYLAMINE, TMA",
    "CAS No.": "75-50-3",
    "Formula": "C3H9N",
    "Molecular Wt. (WT)": "5.91108E+01",
    "Normal Boiling Point Temp. (TB)": "2.76020E+02 K",
    "Freezing Point Temp. (TF)": "1.56000E+02 K",
    "Triple Point Temp. (TT)": NaN,
    "Triple Point Press. (PT)": NaN,
    "Critical Temperature. (TC)": "4.32790E+02 K",
    "Critical Pressure (PC)": "4.08700E+03 kPa",
    "Critical Volume (VC)": "2.54000E-01 m^3/kg-mol",
    "Critical Compressibility (ZC)": "2.88486E-01",
    "Accentric Factor (ACCF)": "2.05000E-01",
    "Vapor Pressure": {
        "Equation Name": "KDB Correlation Equation",
        "Equation": "ln(Pvp) = A*ln(T) + B/T + C + D*T^2 where Pvp in kPa, T in K",
        "Coefficient A": "-1.136012E+01",
        "Coefficient B": "-5.326561E+03",
        "Coefficient C": "8.652126E+01",
        "Coefficient D": "1.638409E-05",
        "Coefficient E": NaN,
        "Coefficient F": NaN,
        "Coefficient G": NaN,
        "T range, from": "156.08 K",
        "T range, to": "433.25 K"
    },
    "Heat Capacity (Ideal Gas)": {
        "Equation Name": "Polynomial Equation",
        "Equation": "Cp = A + B*T + C*T^2 + D*T^3 + E*T^4  where Cp in kJ/kg-mol , T in K",
        "Coefficient A": "-8.206000E+00",
        "Coefficient B": "3.972000E-01",
        "Coefficient C": "-2.219000E-04",
        "Coefficient D": "4.622E-08",
        "Coefficient E": "0",
        "Coefficient F": NaN,
        "Coefficient G": NaN,
        "T range, from": NaN,
        "T range, to": NaN
    },
    "Heat Capacity (Liquid)": NaN,
    "Viscosity (Gas, Low P)": NaN,
    "Viscosity (Liquid)": NaN,
    "Themal Conductivity (Gas, Low P)": NaN,
    "Themal Conductivity (Liquid)": NaN,
    "Surface Tension": NaN,
    "Partial Molar Volume (VOLP)": "8.420000E-02 m^3/kg-mol",
    "Solubility Parameters (SOLP)": "1.425701E+04 (J/cm^3)^0.5",
    "SRK accentric factor (WSRK)": NaN,
    "COSTALD Characteristic Volume (VSTAR)": NaN,
    "Rackett parameter (ZRA)": "2.690000E-01",
    "Aniline Point (ANP)": NaN,
    "H(formation,ideal gas)at 25 C": "-2.386000E+04 kJ/kg-mol",
    "G(formation,ideal gas) at 25 C": "9.898000E+04 kJ/kg-mol",
    "Heat of Combustion, Gross form (HCB1)": NaN,
    "Heat of Combustion, Net form (HCB2)": NaN,
    "Van der Waals Volume (VDWV)": NaN,
    "Van der Waals Area (VDWA)": NaN,
    "UNIQUAC Ri Parameter (RI)": "2.998700E+00",
    "UNIQUAC Qi Parameter (QI)": "2.636000E+00",
    "Dipole Moment (DM)": "6.000000E-01 debye",
    "Radius of Gyration (GYRAD)": "2.736000E+00",
    "Liquid Density (DENL)": "1.070870E-02 g-mol/cm^3",
    "Temperature of DENL (TDENL)": "2.930000E+02 K",
    "Heat of Vaporizaiton (HVAP)": "2.410000E+04 kJ/kg-mol",
    "Temperature of HVAP (THVAP)": "2.760000E+02 K",
    "Surface Tension (SRF)": "1.397000E+01 dyn/cm",
    "Temperature of SRF (TSRF)": "2.932000E+02 K",
    "Dielectric Constant (DIEL)": NaN,
    "Temperature of DIEL (TDIEL)": NaN,
    "Refractive Index (RFI)": NaN,
    "Temperature of RFI (TRFI)": NaN,
    "Lower Flammability Limit(FLL)": NaN,
    "Upper Flammability Limit(FLU)": NaN,
    "Flash Point (Open Cup Method)": NaN,
    "Flash Point (Closed Cup Method)": NaN,
    "Autoignition Temperature (AIGT)": NaN,
    "NFPA Rating (Health)": 2.0,
    "NFPA Rating (Fire)": 4.0,
    "NFPA Rating (Safety)": NaN,
    "Class": "Amines",
    "Subclass": "Aliphatic Amines",
    "SMILES": "CN(C)C"
}