{
    "ID": "1262",
    "Name": "N-BUTYLAMINE",
    "Synonyms": "BUTYLAMINE, NORVALAMINE, 1-AMINOBUTANE",
    "CAS No.": "109-73-9",
    "Formula": "C4H11N",
    "Molecular Wt. (WT)": "7.31376E+01",
    "Normal Boiling Point Temp. (TB)": "3.50150E+02 K",
    "Freezing Point Temp. (TF)": "2.24050E+02 K",
    "Triple Point Temp. (TT)": NaN,
    "Triple Point Press. (PT)": NaN,
    "Critical Temperature. (TC)": "5.31900E+02 K",
    "Critical Pressure (PC)": "4.25000E+03 kPa",
    "Critical Volume (VC)": "2.77000E-01 m^3/kg-mol",
    "Critical Compressibility (ZC)": "2.66196E-01",
    "Accentric Factor (ACCF)": "3.29000E-01",
    "Vapor Pressure": {
        "Equation Name": "KDB Correlation Equation",
        "Equation": "ln(Pvp) = A*ln(T) + B/T + C + D*T^2 where Pvp in kPa, T in K",
        "Coefficient A": "-6.304800E+00",
        "Coefficient B": "-6.041874E+03",
        "Coefficient C": "5.845341E+01",
        "Coefficient D": "2.903891E-06",
        "Coefficient E": NaN,
        "Coefficient F": NaN,
        "Coefficient G": NaN,
        "T range, from": "224.05 K",
        "T range, to": "531.90 K"
    },
    "Heat Capacity (Ideal Gas)": {
        "Equation Name": "Polynomial Equation",
        "Equation": "Cp = A + B*T + C*T^2 + D*T^3 + E*T^4  where Cp in kJ/kg-mol , T in K",
        "Coefficient A": "5.079000E+00",
        "Coefficient B": "4.476000E-01",
        "Coefficient C": "-2.407000E-04",
        "Coefficient D": "7.599E-08",
        "Coefficient E": "0",
        "Coefficient F": NaN,
        "Coefficient G": NaN,
        "T range, from": NaN,
        "T range, to": NaN
    },
    "Heat Capacity (Liquid)": NaN,
    "Viscosity (Gas, Low P)": NaN,
    "Viscosity (Liquid)": NaN,
    "Themal Conductivity (Gas, Low P)": NaN,
    "Themal Conductivity (Liquid)": NaN,
    "Surface Tension": NaN,
    "Partial Molar Volume (VOLP)": "9.956000E-02 m^3/kg-mol",
    "Solubility Parameters (SOLP)": "1.751342E+04 (J/cm^3)^0.5",
    "SRK accentric factor (WSRK)": NaN,
    "COSTALD Characteristic Volume (VSTAR)": NaN,
    "Rackett parameter (ZRA)": NaN,
    "Aniline Point (ANP)": NaN,
    "H(formation,ideal gas)at 25 C": "-9.211001E+04 kJ/kg-mol",
    "G(formation,ideal gas) at 25 C": "4.924000E+04 kJ/kg-mol",
    "Heat of Combustion, Gross form (HCB1)": NaN,
    "Heat of Combustion, Net form (HCB2)": NaN,
    "Van der Waals Volume (VDWV)": NaN,
    "Van der Waals Area (VDWA)": NaN,
    "UNIQUAC Ri Parameter (RI)": "3.619100E+00",
    "UNIQUAC Qi Parameter (QI)": "3.164000E+00",
    "Dipole Moment (DM)": "1.300000E+00 debye",
    "Radius of Gyration (GYRAD)": NaN,
    "Liquid Density (DENL)": "1.010424E-02 g-mol/cm^3",
    "Temperature of DENL (TDENL)": "2.930000E+02 K",
    "Heat of Vaporizaiton (HVAP)": "3.209100E+04 kJ/kg-mol",
    "Temperature of HVAP (THVAP)": "3.501000E+02 K",
    "Surface Tension (SRF)": "2.400000E+01 dyn/cm",
    "Temperature of SRF (TSRF)": "2.932000E+02 K",
    "Dielectric Constant (DIEL)": NaN,
    "Temperature of DIEL (TDIEL)": NaN,
    "Refractive Index (RFI)": NaN,
    "Temperature of RFI (TRFI)": NaN,
    "Lower Flammability Limit(FLL)": "1.700000E+00 % in Air",
    "Upper Flammability Limit(FLU)": "9.800000E+00 % in Air",
    "Flash Point (Open Cup Method)": "2.609278E+02 K",
    "Flash Point (Closed Cup Method)": "2.720389E+02 K",
    "Autoignition Temperature (AIGT)": "5.853723E+02 K",
    "NFPA Rating (Health)": "2",
    "NFPA Rating (Fire)": "3",
    "NFPA Rating (Safety)": NaN,
    "Class": "Amines",
    "Subclass": "Aliphatic Amines",
    "SMILES": "CCCCN"
}