{
    "ID": "1263",
    "Name": "ISOBUTYLAMINE",
    "Synonyms": "MONOISOBUTYLAMINE, VALAMINE, 2-METHYL-1-PROPANAMINE",
    "CAS No.": "78-81-9",
    "Formula": "C4H11N",
    "Molecular Wt. (WT)": "7.31376E+01",
    "Normal Boiling Point Temp. (TB)": "3.40900E+02 K",
    "Freezing Point Temp. (TF)": "1.86400E+02 K",
    "Triple Point Temp. (TT)": NaN,
    "Triple Point Press. (PT)": NaN,
    "Critical Temperature. (TC)": "5.19000E+02 K",
    "Critical Pressure (PC)": "4.07000E+03 kPa",
    "Critical Volume (VC)": "2.78000E-01 m^3/kg-mol",
    "Critical Compressibility (ZC)": "2.62202E-01",
    "Accentric Factor (ACCF)": "3.68000E-01",
    "Vapor Pressure": {
        "Equation Name": "KDB Correlation Equation",
        "Equation": "ln(Pvp) = A*ln(T) + B/T + C + D*T^2 where Pvp in kPa, T in K",
        "Coefficient A": "-7.845602E+00",
        "Coefficient B": "-6.177640E+03",
        "Coefficient C": "6.782316E+01",
        "Coefficient D": "5.373490E-06",
        "Coefficient E": NaN,
        "Coefficient F": NaN,
        "Coefficient G": NaN,
        "T range, from": "188.55 K",
        "T range, to": "664.00 K"
    },
    "Heat Capacity (Ideal Gas)": {
        "Equation Name": "Polynomial Equation",
        "Equation": "Cp = A + B*T + C*T^2 + D*T^3 + E*T^4  where Cp in kJ/kg-mol , T in K",
        "Coefficient A": "9.491000E+00",
        "Coefficient B": "4.430000E-01",
        "Coefficient C": "-2.110000E-04",
        "Coefficient D": "2.333E-08",
        "Coefficient E": "0",
        "Coefficient F": NaN,
        "Coefficient G": NaN,
        "T range, from": NaN,
        "T range, to": NaN
    },
    "Heat Capacity (Liquid)": NaN,
    "Viscosity (Gas, Low P)": NaN,
    "Viscosity (Liquid)": NaN,
    "Themal Conductivity (Gas, Low P)": NaN,
    "Themal Conductivity (Liquid)": NaN,
    "Surface Tension": NaN,
    "Partial Molar Volume (VOLP)": "1.002300E-01 m^3/kg-mol",
    "Solubility Parameters (SOLP)": "1.670750E+04 (J/cm^3)^0.5",
    "SRK accentric factor (WSRK)": NaN,
    "COSTALD Characteristic Volume (VSTAR)": NaN,
    "Rackett parameter (ZRA)": NaN,
    "Aniline Point (ANP)": NaN,
    "H(formation,ideal gas)at 25 C": NaN,
    "G(formation,ideal gas) at 25 C": NaN,
    "Heat of Combustion, Gross form (HCB1)": NaN,
    "Heat of Combustion, Net form (HCB2)": NaN,
    "Van der Waals Volume (VDWV)": NaN,
    "Van der Waals Area (VDWA)": NaN,
    "UNIQUAC Ri Parameter (RI)": "3.618300E+00",
    "UNIQUAC Qi Parameter (QI)": "3.160000E+00",
    "Dipole Moment (DM)": "1.200000E+00 debye",
    "Radius of Gyration (GYRAD)": NaN,
    "Liquid Density (DENL)": "9.871803E-03 g-mol/cm^3",
    "Temperature of DENL (TDENL)": "2.950000E+02 K",
    "Heat of Vaporizaiton (HVAP)": NaN,
    "Temperature of HVAP (THVAP)": NaN,
    "Surface Tension (SRF)": NaN,
    "Temperature of SRF (TSRF)": NaN,
    "Dielectric Constant (DIEL)": NaN,
    "Temperature of DIEL (TDIEL)": NaN,
    "Refractive Index (RFI)": NaN,
    "Temperature of RFI (TRFI)": NaN,
    "Lower Flammability Limit(FLL)": NaN,
    "Upper Flammability Limit(FLU)": NaN,
    "Flash Point (Open Cup Method)": NaN,
    "Flash Point (Closed Cup Method)": NaN,
    "Autoignition Temperature (AIGT)": NaN,
    "NFPA Rating (Health)": 2.0,
    "NFPA Rating (Fire)": 3.0,
    "NFPA Rating (Safety)": NaN,
    "Class": "Amines",
    "Subclass": "Aliphatic Amines",
    "SMILES": "CC(C)CN"
}