{
    "ID": "1266",
    "Name": "DIETHYLAMINE",
    "Synonyms": "N,N-DIETHYLAMINE, DEA, DIETHAMINE",
    "CAS No.": "109-89-7",
    "Formula": "C4H11N",
    "Molecular Wt. (WT)": "7.31376E+01",
    "Normal Boiling Point Temp. (TB)": "3.28600E+02 K",
    "Freezing Point Temp. (TF)": "2.23300E+02 K",
    "Triple Point Temp. (TT)": NaN,
    "Triple Point Press. (PT)": NaN,
    "Critical Temperature. (TC)": "4.99990E+02 K",
    "Critical Pressure (PC)": "3.75800E+03 kPa",
    "Critical Volume (VC)": "3.01000E-01 m^3/kg-mol",
    "Critical Compressibility (ZC)": "2.72098E-01",
    "Accentric Factor (ACCF)": "2.91000E-01",
    "Vapor Pressure": {
        "Equation Name": "KDB Correlation Equation",
        "Equation": "ln(Pvp) = A*ln(T) + B/T + C + D*T^2 where Pvp in kPa, T in K",
        "Coefficient A": "-5.114422E+00",
        "Coefficient B": "-5.219584E+03",
        "Coefficient C": "4.985691E+01",
        "Coefficient D": "2.349476E-06",
        "Coefficient E": NaN,
        "Coefficient F": NaN,
        "Coefficient G": NaN,
        "T range, from": "223.35 K",
        "T range, to": "496.60 K"
    },
    "Heat Capacity (Ideal Gas)": {
        "Equation Name": "Polynomial Equation",
        "Equation": "Cp = A + B*T + C*T^2 + D*T^3 + E*T^4  where Cp in kJ/kg-mol , T in K",
        "Coefficient A": "2.039000E+00",
        "Coefficient B": "4.430000E-01",
        "Coefficient C": "-2.183000E-04",
        "Coefficient D": "3.653E-08",
        "Coefficient E": "0",
        "Coefficient F": NaN,
        "Coefficient G": NaN,
        "T range, from": NaN,
        "T range, to": NaN
    },
    "Heat Capacity (Liquid)": NaN,
    "Viscosity (Gas, Low P)": NaN,
    "Viscosity (Liquid)": {
        "Equation Name": "Andrade Equation",
        "Equation": "ln (VISL) = A + B/ T  where T in K and VISL in cP.",
        "Coefficient A": "-4.759",
        "Coefficient B": "1091",
        "Coefficient C": "0",
        "Coefficient D": "0",
        "Coefficient E": NaN,
        "Coefficient F": NaN,
        "Coefficient G": NaN,
        "T range, from": "243.15 K",
        "T range, to": "313.15 K"
    },
    "Themal Conductivity (Gas, Low P)": NaN,
    "Themal Conductivity (Liquid)": NaN,
    "Surface Tension": NaN,
    "Partial Molar Volume (VOLP)": "1.042500E-01 m^3/kg-mol",
    "Solubility Parameters (SOLP)": "1.679341E+04 (J/cm^3)^0.5",
    "SRK accentric factor (WSRK)": "3.045000E-01",
    "COSTALD Characteristic Volume (VSTAR)": "2.906000E-01 m^3/kg-mol",
    "Rackett parameter (ZRA)": "2.568000E-01",
    "Aniline Point (ANP)": NaN,
    "H(formation,ideal gas)at 25 C": "-7.243000E+04 kJ/kg-mol",
    "G(formation,ideal gas) at 25 C": "7.214000E+04 kJ/kg-mol",
    "Heat of Combustion, Gross form (HCB1)": NaN,
    "Heat of Combustion, Net form (HCB2)": NaN,
    "Van der Waals Volume (VDWV)": NaN,
    "Van der Waals Area (VDWA)": NaN,
    "UNIQUAC Ri Parameter (RI)": "3.683600E+00",
    "UNIQUAC Qi Parameter (QI)": "3.172000E+00",
    "Dipole Moment (DM)": "1.100000E+00 debye",
    "Radius of Gyration (GYRAD)": "3.250000E+00",
    "Liquid Density (DENL)": "9.666710E-03 g-mol/cm^3",
    "Temperature of DENL (TDENL)": "2.930000E+02 K",
    "Heat of Vaporizaiton (HVAP)": "2.782400E+04 kJ/kg-mol",
    "Temperature of HVAP (THVAP)": "3.292000E+02 K",
    "Surface Tension (SRF)": "2.042000E+01 dyn/cm",
    "Temperature of SRF (TSRF)": "2.932000E+02 K",
    "Dielectric Constant (DIEL)": NaN,
    "Temperature of DIEL (TDIEL)": NaN,
    "Refractive Index (RFI)": NaN,
    "Temperature of RFI (TRFI)": NaN,
    "Lower Flammability Limit(FLL)": NaN,
    "Upper Flammability Limit(FLU)": NaN,
    "Flash Point (Open Cup Method)": NaN,
    "Flash Point (Closed Cup Method)": NaN,
    "Autoignition Temperature (AIGT)": NaN,
    "NFPA Rating (Health)": 3.0,
    "NFPA Rating (Fire)": 3.0,
    "NFPA Rating (Safety)": NaN,
    "Class": "Amines",
    "Subclass": "Aliphatic Amines",
    "SMILES": "CCNCC"
}