{
    "ID": "1272",
    "Name": "TRIETHYLAMINE",
    "Synonyms": "N,N-DIETHYLETHANAMINE, TEN",
    "CAS No.": "121-44-8",
    "Formula": "C6H15N",
    "Molecular Wt. (WT)": "1.01191E+02",
    "Normal Boiling Point Temp. (TB)": "3.62000E+02 K",
    "Freezing Point Temp. (TF)": "1.58400E+02 K",
    "Triple Point Temp. (TT)": NaN,
    "Triple Point Press. (PT)": NaN,
    "Critical Temperature. (TC)": "5.35600E+02 K",
    "Critical Pressure (PC)": "3.03200E+03 kPa",
    "Critical Volume (VC)": "3.89000E-01 m^3/kg-mol",
    "Critical Compressibility (ZC)": "2.64851E-01",
    "Accentric Factor (ACCF)": "3.20000E-01",
    "Vapor Pressure": {
        "Equation Name": "KDB Correlation Equation",
        "Equation": "ln(Pvp) = A*ln(T) + B/T + C + D*T^2 where Pvp in kPa, T in K",
        "Coefficient A": "-7.518621E+00",
        "Coefficient B": "-6.127308E+03",
        "Coefficient C": "6.512665E+01",
        "Coefficient D": "5.207042E-06",
        "Coefficient E": NaN,
        "Coefficient F": NaN,
        "Coefficient G": NaN,
        "T range, from": "158.45 K",
        "T range, to": "535.15 K"
    },
    "Heat Capacity (Ideal Gas)": {
        "Equation Name": "Polynomial Equation",
        "Equation": "Cp = A + B*T + C*T^2 + D*T^3 + E*T^4  where Cp in kJ/kg-mol , T in K",
        "Coefficient A": "-1.843000E+01",
        "Coefficient B": "7.155000E-01",
        "Coefficient C": "-4.392000E-04",
        "Coefficient D": "1.092E-07",
        "Coefficient E": "0",
        "Coefficient F": NaN,
        "Coefficient G": NaN,
        "T range, from": NaN,
        "T range, to": NaN
    },
    "Heat Capacity (Liquid)": NaN,
    "Viscosity (Gas, Low P)": NaN,
    "Viscosity (Liquid)": {
        "Equation Name": "Andrade Equation",
        "Equation": "ln (VISL) = A + B/ T  where T in K and VISL in cP.",
        "Coefficient A": "-4.106",
        "Coefficient B": "921.6",
        "Coefficient C": "0",
        "Coefficient D": "0",
        "Coefficient E": NaN,
        "Coefficient F": NaN,
        "Coefficient G": NaN,
        "T range, from": "240.15 K",
        "T range, to": "298.15 K"
    },
    "Themal Conductivity (Gas, Low P)": NaN,
    "Themal Conductivity (Liquid)": NaN,
    "Surface Tension": NaN,
    "Partial Molar Volume (VOLP)": "1.399600E-01 m^3/kg-mol",
    "Solubility Parameters (SOLP)": "1.541476E+04 (J/cm^3)^0.5",
    "SRK accentric factor (WSRK)": "3.196000E-01",
    "COSTALD Characteristic Volume (VSTAR)": "4.026000E-01 m^3/kg-mol",
    "Rackett parameter (ZRA)": "2.693000E-01",
    "Aniline Point (ANP)": NaN,
    "H(formation,ideal gas)at 25 C": "-9.965000E+04 kJ/kg-mol",
    "G(formation,ideal gas) at 25 C": "1.104000E+05 kJ/kg-mol",
    "Heat of Combustion, Gross form (HCB1)": NaN,
    "Heat of Combustion, Net form (HCB2)": NaN,
    "Van der Waals Volume (VDWV)": NaN,
    "Van der Waals Area (VDWA)": NaN,
    "UNIQUAC Ri Parameter (RI)": "5.011800E+00",
    "UNIQUAC Qi Parameter (QI)": "4.256000E+00",
    "Dipole Moment (DM)": "9.000000E-01 debye",
    "Radius of Gyration (GYRAD)": "3.930000E+00",
    "Liquid Density (DENL)": "7.194301E-03 g-mol/cm^3",
    "Temperature of DENL (TDENL)": "2.930000E+02 K",
    "Heat of Vaporizaiton (HVAP)": "3.138000E+04 kJ/kg-mol",
    "Temperature of HVAP (THVAP)": "3.624000E+02 K",
    "Surface Tension (SRF)": "2.072000E+01 dyn/cm",
    "Temperature of SRF (TSRF)": "2.932000E+02 K",
    "Dielectric Constant (DIEL)": NaN,
    "Temperature of DIEL (TDIEL)": NaN,
    "Refractive Index (RFI)": NaN,
    "Temperature of RFI (TRFI)": NaN,
    "Lower Flammability Limit(FLL)": NaN,
    "Upper Flammability Limit(FLU)": NaN,
    "Flash Point (Open Cup Method)": NaN,
    "Flash Point (Closed Cup Method)": NaN,
    "Autoignition Temperature (AIGT)": NaN,
    "NFPA Rating (Health)": 2.0,
    "NFPA Rating (Fire)": 3.0,
    "NFPA Rating (Safety)": NaN,
    "Class": "Amines",
    "Subclass": "Aliphatic Amines",
    "SMILES": "CCN(CC)CC"
}