{
    "ID": "1292",
    "Name": "ANILINE",
    "Synonyms": "BENZENAMINE, AMINOBENZENE, AMINOPHEN",
    "CAS No.": "62-53-3",
    "Formula": "C6H7N",
    "Molecular Wt. (WT)": "9.31280E+01",
    "Normal Boiling Point Temp. (TB)": "4.57320E+02 K",
    "Freezing Point Temp. (TF)": "2.67130E+02 K",
    "Triple Point Temp. (TT)": NaN,
    "Triple Point Press. (PT)": NaN,
    "Critical Temperature. (TC)": "6.99000E+02 K",
    "Critical Pressure (PC)": "4.89000E+03 kPa",
    "Critical Volume (VC)": "2.87000E-01 m^3/kg-mol",
    "Critical Compressibility (ZC)": "2.41478E-01",
    "Accentric Factor (ACCF)": "3.84000E-01",
    "Vapor Pressure": {
        "Equation Name": "KDB Correlation Equation",
        "Equation": "ln(Pvp) = A*ln(T) + B/T + C + D*T^2 where Pvp in kPa, T in K",
        "Coefficient A": "-2.211315E+01",
        "Coefficient B": "-1.307973E+04",
        "Coefficient C": "1.660812E+02",
        "Coefficient D": "1.233275E-05",
        "Coefficient E": NaN,
        "Coefficient F": NaN,
        "Coefficient G": NaN,
        "T range, from": "267.13 K",
        "T range, to": "699.00 K"
    },
    "Heat Capacity (Ideal Gas)": {
        "Equation Name": "Polynomial Equation",
        "Equation": "Cp = A + B*T + C*T^2 + D*T^3 + E*T^4  where Cp in kJ/kg-mol , T in K",
        "Coefficient A": "-4.052000E+01",
        "Coefficient B": "6.385000E-01",
        "Coefficient C": "-5.133000E-04",
        "Coefficient D": "1.633E-07",
        "Coefficient E": "0",
        "Coefficient F": NaN,
        "Coefficient G": NaN,
        "T range, from": NaN,
        "T range, to": NaN
    },
    "Heat Capacity (Liquid)": {
        "Equation Name": "Polynomial Equation",
        "Equation": "Cp = A + B*T + C*T^2 + D*T^3  where T in K and Cp in kJ/kg-mol.K",
        "Coefficient A": "54.82341",
        "Coefficient B": ".9612605",
        "Coefficient C": "-2.371005E-03",
        "Coefficient D": "2.309441E-06",
        "Coefficient E": NaN,
        "Coefficient F": NaN,
        "Coefficient G": NaN,
        "T range, from": "267 K",
        "T range, to": "633.15 K"
    },
    "Viscosity (Gas, Low P)": {
        "Equation Name": "Polynomial Equation",
        "Equation": "VISG = A + B*T + C*T^2 where T in K and VISG in cP",
        "Coefficient A": "-.001498",
        "Coefficient B": "2.903E-05",
        "Coefficient C": "-1.116E-10",
        "Coefficient D": "0",
        "Coefficient E": NaN,
        "Coefficient F": NaN,
        "Coefficient G": NaN,
        "T range, from": "273.15 K",
        "T range, to": "1273.15 K"
    },
    "Viscosity (Liquid)": {
        "Equation Name": "Quasipolynomial Equation",
        "Equation": "ln (VISL) = A + B/T + C*T + D*T^2  where T in K and VISL in cP.",
        "Coefficient A": "356.9",
        "Coefficient B": "-32370",
        "Coefficient C": "-1.254",
        "Coefficient D": ".001428",
        "Coefficient E": NaN,
        "Coefficient F": NaN,
        "Coefficient G": NaN,
        "T range, from": "267.15 K",
        "T range, to": "323.15 K"
    },
    "Themal Conductivity (Gas, Low P)": {
        "Equation Name": "Polynomial Equation",
        "Equation": "THG = A + B*T + C*T^2 + D*T^3  where T in K and THG in W/m.K",
        "Coefficient A": "-.01105",
        "Coefficient B": "4.979E-05",
        "Coefficient C": "6.491E-08",
        "Coefficient D": "-1.801E-11",
        "Coefficient E": NaN,
        "Coefficient F": NaN,
        "Coefficient G": NaN,
        "T range, from": "273 K",
        "T range, to": "1270 K"
    },
    "Themal Conductivity (Liquid)": {
        "Equation Name": "Polynomial Equation",
        "Equation": "THL = A + B*T + C*T^2 + D*T^3  where T in K and THL in W/m.K",
        "Coefficient A": ".2251",
        "Coefficient B": "-.0001274",
        "Coefficient C": "-6.239E-08",
        "Coefficient D": "0",
        "Coefficient E": NaN,
        "Coefficient F": NaN,
        "Coefficient G": NaN,
        "T range, from": "268 K",
        "T range, to": "680 K"
    },
    "Surface Tension": NaN,
    "Partial Molar Volume (VOLP)": "9.153000E-02 m^3/kg-mol",
    "Solubility Parameters (SOLP)": "2.242054E+04 (J/cm^3)^0.5",
    "SRK accentric factor (WSRK)": "3.809000E-01",
    "COSTALD Characteristic Volume (VSTAR)": "2.901000E-01 m^3/kg-mol",
    "Rackett parameter (ZRA)": "2.616000E-01",
    "Aniline Point (ANP)": NaN,
    "H(formation,ideal gas)at 25 C": "8.692000E+04 kJ/kg-mol",
    "G(formation,ideal gas) at 25 C": "1.668000E+05 kJ/kg-mol",
    "Heat of Combustion, Gross form (HCB1)": NaN,
    "Heat of Combustion, Net form (HCB2)": NaN,
    "Van der Waals Volume (VDWV)": NaN,
    "Van der Waals Area (VDWA)": NaN,
    "UNIQUAC Ri Parameter (RI)": "3.716500E+00",
    "UNIQUAC Qi Parameter (QI)": "2.816000E+00",
    "Dipole Moment (DM)": "1.600000E+00 debye",
    "Radius of Gyration (GYRAD)": "3.393000E+00",
    "Liquid Density (DENL)": "1.097414E-02 g-mol/cm^3",
    "Temperature of DENL (TDENL)": "2.930000E+02 K",
    "Heat of Vaporizaiton (HVAP)": "4.184000E+04 kJ/kg-mol",
    "Temperature of HVAP (THVAP)": "4.572000E+02 K",
    "Surface Tension (SRF)": "4.267000E+01 dyn/cm",
    "Temperature of SRF (TSRF)": "2.932000E+02 K",
    "Dielectric Constant (DIEL)": NaN,
    "Temperature of DIEL (TDIEL)": NaN,
    "Refractive Index (RFI)": NaN,
    "Temperature of RFI (TRFI)": NaN,
    "Lower Flammability Limit(FLL)": "1.300000E+00 % in Air",
    "Upper Flammability Limit(FLU)": NaN,
    "Flash Point (Open Cup Method)": "3.431500E+02 K",
    "Flash Point (Closed Cup Method)": "3.487056E+02 K",
    "Autoignition Temperature (AIGT)": "1.043150E+03 K",
    "NFPA Rating (Health)": "3",
    "NFPA Rating (Fire)": "2",
    "NFPA Rating (Safety)": NaN,
    "Class": "Amines",
    "Subclass": "Aromatic Amines",
    "SMILES": "C1=CC=C(C=C1)N"
}