{
    "ID": "13",
    "Name": "N-TRIDECANE",
    "Synonyms": "TRIDECANE",
    "CAS No.": "629-50-5",
    "Formula": "C13H28",
    "Molecular Wt. (WT)": "1.84364E+02",
    "Normal Boiling Point Temp. (TB)": "5.08620E+02 K",
    "Freezing Point Temp. (TF)": "2.67760E+02 K",
    "Triple Point Temp. (TT)": NaN,
    "Triple Point Press. (PT)": NaN,
    "Critical Temperature. (TC)": "6.75000E+02 K",
    "Critical Pressure (PC)": "1.68000E+03 kPa",
    "Critical Volume (VC)": "8.23000E-01 m^3/kg-mol",
    "Critical Compressibility (ZC)": "2.46359E-01",
    "Accentric Factor (ACCF)": "6.19000E-01",
    "Vapor Pressure": {
        "Equation Name": "KDB Correlation Equation",
        "Equation": "ln(Pvp) = A*ln(T) + B/T + C + D*T^2 where Pvp in kPa, T in K",
        "Coefficient A": "-1.230367E+01",
        "Coefficient B": "-1.099181E+04",
        "Coefficient C": "1.016196E+02",
        "Coefficient D": "4.958213E-06",
        "Coefficient E": NaN,
        "Coefficient F": NaN,
        "Coefficient G": NaN,
        "T range, from": "267.76 K",
        "T range, to": "675.80 K"
    },
    "Heat Capacity (Ideal Gas)": {
        "Equation Name": "Polynomial Equation",
        "Equation": "Cp = A + B*T + C*T^2 + D*T^3 + E*T^4  where Cp in kJ/kg-mol , T in K",
        "Coefficient A": "2.548894E+02",
        "Coefficient B": "-8.919177E-01",
        "Coefficient C": "5.260973E-03",
        "Coefficient D": "-6.700007E-06",
        "Coefficient E": "2.776714E-09",
        "Coefficient F": NaN,
        "Coefficient G": NaN,
        "T range, from": NaN,
        "T range, to": NaN
    },
    "Heat Capacity (Liquid)": NaN,
    "Viscosity (Gas, Low P)": NaN,
    "Viscosity (Liquid)": {
        "Equation Name": "Andrade Equation",
        "Equation": "ln (VISL) = A + B/ T  where T in K and VISL in cP.",
        "Coefficient A": "-4.605",
        "Coefficient B": "1529",
        "Coefficient C": "0",
        "Coefficient D": "0",
        "Coefficient E": NaN,
        "Coefficient F": NaN,
        "Coefficient G": NaN,
        "T range, from": "268.15 K",
        "T range, to": "513.15 K"
    },
    "Themal Conductivity (Gas, Low P)": NaN,
    "Themal Conductivity (Liquid)": NaN,
    "Surface Tension": NaN,
    "Partial Molar Volume (VOLP)": NaN,
    "Solubility Parameters (SOLP)": "1.613681E+04 (J/cm^3)^0.5",
    "SRK accentric factor (WSRK)": "6.340000E-01",
    "COSTALD Characteristic Volume (VSTAR)": "8.317000E-01 m^3/kg-mol",
    "Rackett parameter (ZRA)": "2.473000E-01",
    "Aniline Point (ANP)": NaN,
    "H(formation,ideal gas)at 25 C": "-3.117000E+05 kJ/kg-mol",
    "G(formation,ideal gas) at 25 C": "5.849000E+04 kJ/kg-mol",
    "Heat of Combustion, Gross form (HCB1)": NaN,
    "Heat of Combustion, Net form (HCB2)": NaN,
    "Van der Waals Volume (VDWV)": NaN,
    "Van der Waals Area (VDWA)": NaN,
    "UNIQUAC Ri Parameter (RI)": NaN,
    "UNIQUAC Qi Parameter (QI)": NaN,
    "Dipole Moment (DM)": NaN,
    "Radius of Gyration (GYRAD)": NaN,
    "Liquid Density (DENL)": "4.100579E-03 g-mol/cm^3",
    "Temperature of DENL (TDENL)": "2.930000E+02 K",
    "Heat of Vaporizaiton (HVAP)": "4.564700E+04 kJ/kg-mol",
    "Temperature of HVAP (THVAP)": "5.078000E+02 K",
    "Surface Tension (SRF)": "2.599000E+01 dyn/cm",
    "Temperature of SRF (TSRF)": "2.932000E+02 K",
    "Dielectric Constant (DIEL)": NaN,
    "Temperature of DIEL (TDIEL)": NaN,
    "Refractive Index (RFI)": NaN,
    "Temperature of RFI (TRFI)": NaN,
    "Lower Flammability Limit(FLL)": NaN,
    "Upper Flammability Limit(FLU)": NaN,
    "Flash Point (Open Cup Method)": NaN,
    "Flash Point (Closed Cup Method)": NaN,
    "Autoignition Temperature (AIGT)": NaN,
    "NFPA Rating (Health)": NaN,
    "NFPA Rating (Fire)": NaN,
    "NFPA Rating (Safety)": NaN,
    "Class": "Paraffinic Hydrocarbons",
    "Subclass": "n-Alkanes",
    "SMILES": "CCCCCCCCCCCCC"
}