{
    "ID": "1318",
    "Name": "ETHYLENEDIAMINE",
    "Synonyms": "1,2-ETHANEDIAMINE, BETA-AMINOETHYLAMINE, AETHYLENEDIAMIN",
    "CAS No.": "107-15-3",
    "Formula": "C2H8N2",
    "Molecular Wt. (WT)": "6.00986E+01",
    "Normal Boiling Point Temp. (TB)": "3.90400E+02 K",
    "Freezing Point Temp. (TF)": "2.84000E+02 K",
    "Triple Point Temp. (TT)": "2.84290E+02 K",
    "Triple Point Press. (PT)": NaN,
    "Critical Temperature. (TC)": "5.93000E+02 K",
    "Critical Pressure (PC)": "6.28000E+03 kPa",
    "Critical Volume (VC)": "2.06000E-01 m^3/kg-mol",
    "Critical Compressibility (ZC)": "2.62383E-01",
    "Accentric Factor (ACCF)": "5.10000E-01",
    "Vapor Pressure": {
        "Equation Name": "KDB Correlation Equation",
        "Equation": "ln(Pvp) = A*ln(T) + B/T + C + D*T^2 where Pvp in kPa, T in K",
        "Coefficient A": "-1.419551E+01",
        "Coefficient B": "-9.190935E+03",
        "Coefficient C": "1.113205E+02",
        "Coefficient D": "1.012227E-05",
        "Coefficient E": NaN,
        "Coefficient F": NaN,
        "Coefficient G": NaN,
        "T range, from": "284.15 K",
        "T range, to": "593.00 K"
    },
    "Heat Capacity (Ideal Gas)": {
        "Equation Name": "Polynomial Equation",
        "Equation": "Cp = A + B*T + C*T^2 + D*T^3 + E*T^4  where Cp in kJ/kg-mol , T in K",
        "Coefficient A": "3.830000E+01",
        "Coefficient B": "2.407000E-01",
        "Coefficient C": "-4.338000E-05",
        "Coefficient D": "-3.948E-08",
        "Coefficient E": "0",
        "Coefficient F": NaN,
        "Coefficient G": NaN,
        "T range, from": NaN,
        "T range, to": NaN
    },
    "Heat Capacity (Liquid)": NaN,
    "Viscosity (Gas, Low P)": NaN,
    "Viscosity (Liquid)": NaN,
    "Themal Conductivity (Gas, Low P)": NaN,
    "Themal Conductivity (Liquid)": NaN,
    "Surface Tension": NaN,
    "Partial Molar Volume (VOLP)": "6.784000E-02 m^3/kg-mol",
    "Solubility Parameters (SOLP)": "2.561558E+04 (J/cm^3)^0.5",
    "SRK accentric factor (WSRK)": NaN,
    "COSTALD Characteristic Volume (VSTAR)": NaN,
    "Rackett parameter (ZRA)": NaN,
    "Aniline Point (ANP)": NaN,
    "H(formation,ideal gas)at 25 C": NaN,
    "G(formation,ideal gas) at 25 C": NaN,
    "Heat of Combustion, Gross form (HCB1)": NaN,
    "Heat of Combustion, Net form (HCB2)": NaN,
    "Van der Waals Volume (VDWV)": NaN,
    "Van der Waals Area (VDWA)": NaN,
    "UNIQUAC Ri Parameter (RI)": "2.738400E+00",
    "UNIQUAC Qi Parameter (QI)": "2.472000E+00",
    "Dipole Moment (DM)": "1.900000E+00 debye",
    "Radius of Gyration (GYRAD)": NaN,
    "Liquid Density (DENL)": "1.490883E-02 g-mol/cm^3",
    "Temperature of DENL (TDENL)": "2.930000E+02 K",
    "Heat of Vaporizaiton (HVAP)": NaN,
    "Temperature of HVAP (THVAP)": NaN,
    "Surface Tension (SRF)": NaN,
    "Temperature of SRF (TSRF)": NaN,
    "Dielectric Constant (DIEL)": NaN,
    "Temperature of DIEL (TDIEL)": NaN,
    "Refractive Index (RFI)": NaN,
    "Temperature of RFI (TRFI)": NaN,
    "Lower Flammability Limit(FLL)": NaN,
    "Upper Flammability Limit(FLU)": NaN,
    "Flash Point (Open Cup Method)": NaN,
    "Flash Point (Closed Cup Method)": NaN,
    "Autoignition Temperature (AIGT)": NaN,
    "NFPA Rating (Health)": 3.0,
    "NFPA Rating (Fire)": 2.0,
    "NFPA Rating (Safety)": NaN,
    "Class": "Amines",
    "Subclass": "Other Amines (Cyclic or Unsaturated)",
    "SMILES": "C(CN)N"
}