{
    "ID": "1334",
    "Name": "ETHYLENEIMINE",
    "Synonyms": "AZIRIDINE, AZACYCLOPROPANE, DIMETHYLENIMINE",
    "CAS No.": "151-56-4",
    "Formula": "C2H5N",
    "Molecular Wt. (WT)": "4.30682E+01",
    "Normal Boiling Point Temp. (TB)": "3.28600E+02 K",
    "Freezing Point Temp. (TF)": "1.95000E+02 K",
    "Triple Point Temp. (TT)": NaN,
    "Triple Point Press. (PT)": NaN,
    "Critical Temperature. (TC)": "5.24000E+02 K",
    "Critical Pressure (PC)": "9.95000E+03 kPa",
    "Critical Volume (VC)": NaN,
    "Critical Compressibility (ZC)": NaN,
    "Accentric Factor (ACCF)": "4.35000E-01",
    "Vapor Pressure": {
        "Equation Name": "KDB Correlation Equation",
        "Equation": "ln(Pvp) = A*ln(T) + B/T + C + D*T^2 where Pvp in kPa, T in K",
        "Coefficient A": "-8.813617E+00",
        "Coefficient B": "-6.497947E+03",
        "Coefficient C": "7.493089E+01",
        "Coefficient D": "4.829029E-06",
        "Coefficient E": NaN,
        "Coefficient F": NaN,
        "Coefficient G": NaN,
        "T range, from": "195.20 K",
        "T range, to": "537.00 K"
    },
    "Heat Capacity (Ideal Gas)": NaN,
    "Heat Capacity (Liquid)": NaN,
    "Viscosity (Gas, Low P)": NaN,
    "Viscosity (Liquid)": NaN,
    "Themal Conductivity (Gas, Low P)": NaN,
    "Themal Conductivity (Liquid)": NaN,
    "Surface Tension": NaN,
    "Partial Molar Volume (VOLP)": NaN,
    "Solubility Parameters (SOLP)": NaN,
    "SRK accentric factor (WSRK)": NaN,
    "COSTALD Characteristic Volume (VSTAR)": NaN,
    "Rackett parameter (ZRA)": NaN,
    "Aniline Point (ANP)": NaN,
    "H(formation,ideal gas)at 25 C": NaN,
    "G(formation,ideal gas) at 25 C": NaN,
    "Heat of Combustion, Gross form (HCB1)": NaN,
    "Heat of Combustion, Net form (HCB2)": NaN,
    "Van der Waals Volume (VDWV)": NaN,
    "Van der Waals Area (VDWA)": NaN,
    "UNIQUAC Ri Parameter (RI)": NaN,
    "UNIQUAC Qi Parameter (QI)": NaN,
    "Dipole Moment (DM)": NaN,
    "Radius of Gyration (GYRAD)": NaN,
    "Liquid Density (DENL)": NaN,
    "Temperature of DENL (TDENL)": NaN,
    "Heat of Vaporizaiton (HVAP)": "3.204900E+04 kJ/kg-mol",
    "Temperature of HVAP (THVAP)": "3.286000E+02 K",
    "Surface Tension (SRF)": NaN,
    "Temperature of SRF (TSRF)": NaN,
    "Dielectric Constant (DIEL)": NaN,
    "Temperature of DIEL (TDIEL)": NaN,
    "Refractive Index (RFI)": NaN,
    "Temperature of RFI (TRFI)": NaN,
    "Lower Flammability Limit(FLL)": NaN,
    "Upper Flammability Limit(FLU)": NaN,
    "Flash Point (Open Cup Method)": NaN,
    "Flash Point (Closed Cup Method)": NaN,
    "Autoignition Temperature (AIGT)": NaN,
    "NFPA Rating (Health)": 3.0,
    "NFPA Rating (Fire)": 3.0,
    "NFPA Rating (Safety)": 3.0,
    "Class": "Amines",
    "Subclass": "Imines",
    "SMILES": "C1CN1"
}