{
    "ID": "1338",
    "Name": "PYRROLE",
    "Synonyms": "1H-PYRROLE, AZOLE, DIVINYLENIMINE",
    "CAS No.": "109-97-7",
    "Formula": "C4H5N",
    "Molecular Wt. (WT)": "6.70902E+01",
    "Normal Boiling Point Temp. (TB)": "4.02940E+02 K",
    "Freezing Point Temp. (TF)": "2.49730E+02 K",
    "Triple Point Temp. (TT)": "2.49740E+02 K",
    "Triple Point Press. (PT)": NaN,
    "Critical Temperature. (TC)": "6.39700E+02 K",
    "Critical Pressure (PC)": "6.34000E+03 kPa",
    "Critical Volume (VC)": "2.00000E-01 m^3/kg-mol",
    "Critical Compressibility (ZC)": "2.38400E-01",
    "Accentric Factor (ACCF)": NaN,
    "Vapor Pressure": {
        "Equation Name": "KDB Correlation Equation",
        "Equation": "ln(Pvp) = A*ln(T) + B/T + C + D*T^2 where Pvp in kPa, T in K",
        "Coefficient A": "-1.245248E+01",
        "Coefficient B": "-8.936889E+03",
        "Coefficient C": "1.004053E+02",
        "Coefficient D": "6.756761E-06",
        "Coefficient E": NaN,
        "Coefficient F": NaN,
        "Coefficient G": NaN,
        "T range, from": "249.74 K",
        "T range, to": "639.75 K"
    },
    "Heat Capacity (Ideal Gas)": NaN,
    "Heat Capacity (Liquid)": NaN,
    "Viscosity (Gas, Low P)": NaN,
    "Viscosity (Liquid)": NaN,
    "Themal Conductivity (Gas, Low P)": NaN,
    "Themal Conductivity (Liquid)": NaN,
    "Surface Tension": NaN,
    "Partial Molar Volume (VOLP)": NaN,
    "Solubility Parameters (SOLP)": "2.321623E+04 (J/cm^3)^0.5",
    "SRK accentric factor (WSRK)": "3.305000E-01",
    "COSTALD Characteristic Volume (VSTAR)": "2.130000E-01 m^3/kg-mol",
    "Rackett parameter (ZRA)": NaN,
    "Aniline Point (ANP)": NaN,
    "H(formation,ideal gas)at 25 C": "1.084000E+05 kJ/kg-mol",
    "G(formation,ideal gas) at 25 C": NaN,
    "Heat of Combustion, Gross form (HCB1)": NaN,
    "Heat of Combustion, Net form (HCB2)": NaN,
    "Van der Waals Volume (VDWV)": NaN,
    "Van der Waals Area (VDWA)": NaN,
    "UNIQUAC Ri Parameter (RI)": NaN,
    "UNIQUAC Qi Parameter (QI)": NaN,
    "Dipole Moment (DM)": "1.800000E+00 debye",
    "Radius of Gyration (GYRAD)": NaN,
    "Liquid Density (DENL)": "1.441343E-02 g-mol/cm^3",
    "Temperature of DENL (TDENL)": "2.940000E+02 K",
    "Heat of Vaporizaiton (HVAP)": NaN,
    "Temperature of HVAP (THVAP)": NaN,
    "Surface Tension (SRF)": NaN,
    "Temperature of SRF (TSRF)": NaN,
    "Dielectric Constant (DIEL)": NaN,
    "Temperature of DIEL (TDIEL)": NaN,
    "Refractive Index (RFI)": NaN,
    "Temperature of RFI (TRFI)": NaN,
    "Lower Flammability Limit(FLL)": NaN,
    "Upper Flammability Limit(FLU)": NaN,
    "Flash Point (Open Cup Method)": NaN,
    "Flash Point (Closed Cup Method)": NaN,
    "Autoignition Temperature (AIGT)": NaN,
    "NFPA Rating (Health)": NaN,
    "NFPA Rating (Fire)": NaN,
    "NFPA Rating (Safety)": NaN,
    "Class": "Amines",
    "Subclass": "Imines",
    "SMILES": "C1=CNC=C1"
}