{
    "ID": "1340",
    "Name": "PYRROLIDINE",
    "Synonyms": "AZACYCLOPENTANE, AZOLIDINE, BUTYLENIMINE",
    "CAS No.": "123-75-1",
    "Formula": "C4H9N",
    "Molecular Wt. (WT)": "7.11218E+01",
    "Normal Boiling Point Temp. (TB)": "3.59710E+02 K",
    "Freezing Point Temp. (TF)": "2.15310E+02 K",
    "Triple Point Temp. (TT)": "2.15300E+02 K",
    "Triple Point Press. (PT)": NaN,
    "Critical Temperature. (TC)": "5.68200E+02 K",
    "Critical Pressure (PC)": "5.59000E+03 kPa",
    "Critical Volume (VC)": "2.38000E-01 m^3/kg-mol",
    "Critical Compressibility (ZC)": "2.81612E-01",
    "Accentric Factor (ACCF)": "2.74000E-01",
    "Vapor Pressure": {
        "Equation Name": "KDB Correlation Equation",
        "Equation": "ln(Pvp) = A*ln(T) + B/T + C + D*T^2 where Pvp in kPa, T in K",
        "Coefficient A": "-1.408748E+01",
        "Coefficient B": "-8.214273E+03",
        "Coefficient C": "1.089834E+02",
        "Coefficient D": "1.069913E-05",
        "Coefficient E": NaN,
        "Coefficient F": NaN,
        "Coefficient G": NaN,
        "T range, from": "215.31 K",
        "T range, to": "568.55 K"
    },
    "Heat Capacity (Ideal Gas)": {
        "Equation Name": "Polynomial Equation",
        "Equation": "Cp = A + B*T + C*T^2 + D*T^3 + E*T^4  where Cp in kJ/kg-mol , T in K",
        "Coefficient A": "-5.153000E+01",
        "Coefficient B": "5.338000E-01",
        "Coefficient C": "-3.240000E-04",
        "Coefficient D": "7.528E-08",
        "Coefficient E": "0",
        "Coefficient F": NaN,
        "Coefficient G": NaN,
        "T range, from": NaN,
        "T range, to": NaN
    },
    "Heat Capacity (Liquid)": NaN,
    "Viscosity (Gas, Low P)": NaN,
    "Viscosity (Liquid)": NaN,
    "Themal Conductivity (Gas, Low P)": NaN,
    "Themal Conductivity (Liquid)": NaN,
    "Surface Tension": NaN,
    "Partial Molar Volume (VOLP)": "8.347000E-02 m^3/kg-mol",
    "Solubility Parameters (SOLP)": "1.936868E+04 (J/cm^3)^0.5",
    "SRK accentric factor (WSRK)": "2.718000E-01",
    "COSTALD Characteristic Volume (VSTAR)": "2.423000E-01 m^3/kg-mol",
    "Rackett parameter (ZRA)": NaN,
    "Aniline Point (ANP)": NaN,
    "H(formation,ideal gas)at 25 C": "-3.600000E+03 kJ/kg-mol",
    "G(formation,ideal gas) at 25 C": "1.148000E+05 kJ/kg-mol",
    "Heat of Combustion, Gross form (HCB1)": NaN,
    "Heat of Combustion, Net form (HCB2)": NaN,
    "Van der Waals Volume (VDWV)": NaN,
    "Van der Waals Area (VDWA)": NaN,
    "UNIQUAC Ri Parameter (RI)": "3.230200E+00",
    "UNIQUAC Qi Parameter (QI)": "2.556000E+00",
    "Dipole Moment (DM)": "1.600000E+00 debye",
    "Radius of Gyration (GYRAD)": NaN,
    "Liquid Density (DENL)": "1.197945E-02 g-mol/cm^3",
    "Temperature of DENL (TDENL)": "2.950000E+02 K",
    "Heat of Vaporizaiton (HVAP)": "3.308700E+04 kJ/kg-mol",
    "Temperature of HVAP (THVAP)": "3.590000E+02 K",
    "Surface Tension (SRF)": "2.965000E+01 dyn/cm",
    "Temperature of SRF (TSRF)": "2.932000E+02 K",
    "Dielectric Constant (DIEL)": NaN,
    "Temperature of DIEL (TDIEL)": NaN,
    "Refractive Index (RFI)": NaN,
    "Temperature of RFI (TRFI)": NaN,
    "Lower Flammability Limit(FLL)": NaN,
    "Upper Flammability Limit(FLU)": NaN,
    "Flash Point (Open Cup Method)": NaN,
    "Flash Point (Closed Cup Method)": NaN,
    "Autoignition Temperature (AIGT)": NaN,
    "NFPA Rating (Health)": NaN,
    "NFPA Rating (Fire)": NaN,
    "NFPA Rating (Safety)": NaN,
    "Class": "Amines",
    "Subclass": "Imines",
    "SMILES": "C1CCNC1"
}