{
    "ID": "1342",
    "Name": "PYRIDINE",
    "Synonyms": "AZABENZENE, AZINE, PIRIDINA",
    "CAS No.": "110-86-1",
    "Formula": "C5H5N",
    "Molecular Wt. (WT)": "7.91012E+01",
    "Normal Boiling Point Temp. (TB)": "3.88380E+02 K",
    "Freezing Point Temp. (TF)": "2.31490E+02 K",
    "Triple Point Temp. (TT)": "2.31480E+02 K",
    "Triple Point Press. (PT)": NaN,
    "Critical Temperature. (TC)": "6.20000E+02 K",
    "Critical Pressure (PC)": "5.67000E+03 kPa",
    "Critical Volume (VC)": "2.43000E-01 m^3/kg-mol",
    "Critical Compressibility (ZC)": "2.67277E-01",
    "Accentric Factor (ACCF)": "2.43000E-01",
    "Vapor Pressure": {
        "Equation Name": "KDB Correlation Equation",
        "Equation": "ln(Pvp) = A*ln(T) + B/T + C + D*T^2 where Pvp in kPa, T in K",
        "Coefficient A": "-8.907666E+00",
        "Coefficient B": "-7.221386E+03",
        "Coefficient C": "7.552152E+01",
        "Coefficient D": "5.304278E-06",
        "Coefficient E": NaN,
        "Coefficient F": NaN,
        "Coefficient G": NaN,
        "T range, from": "231.51 K",
        "T range, to": "619.95 K"
    },
    "Heat Capacity (Ideal Gas)": {
        "Equation Name": "Polynomial Equation",
        "Equation": "Cp = A + B*T + C*T^2 + D*T^3 + E*T^4  where Cp in kJ/kg-mol , T in K",
        "Coefficient A": "3.979000E+01",
        "Coefficient B": "4.928000E-01",
        "Coefficient C": "-3.558000E-04",
        "Coefficient D": "1.004E-07",
        "Coefficient E": "0",
        "Coefficient F": NaN,
        "Coefficient G": NaN,
        "T range, from": NaN,
        "T range, to": NaN
    },
    "Heat Capacity (Liquid)": NaN,
    "Viscosity (Gas, Low P)": NaN,
    "Viscosity (Liquid)": NaN,
    "Themal Conductivity (Gas, Low P)": NaN,
    "Themal Conductivity (Liquid)": NaN,
    "Surface Tension": NaN,
    "Partial Molar Volume (VOLP)": "8.086000E-02 m^3/kg-mol",
    "Solubility Parameters (SOLP)": "2.184371E+04 (J/cm^3)^0.5",
    "SRK accentric factor (WSRK)": "2.398000E-01",
    "COSTALD Characteristic Volume (VSTAR)": "2.400000E-01 m^3/kg-mol",
    "Rackett parameter (ZRA)": "2.660000E-01",
    "Aniline Point (ANP)": NaN,
    "H(formation,ideal gas)at 25 C": "1.403000E+05 kJ/kg-mol",
    "G(formation,ideal gas) at 25 C": "1.903000E+05 kJ/kg-mol",
    "Heat of Combustion, Gross form (HCB1)": NaN,
    "Heat of Combustion, Net form (HCB2)": NaN,
    "Van der Waals Volume (VDWV)": NaN,
    "Van der Waals Area (VDWA)": NaN,
    "UNIQUAC Ri Parameter (RI)": "2.999300E+00",
    "UNIQUAC Qi Parameter (QI)": "2.113000E+00",
    "Dipole Moment (DM)": "2.300000E+00 debye",
    "Radius of Gyration (GYRAD)": "3.050000E+00",
    "Liquid Density (DENL)": "1.242712E-02 g-mol/cm^3",
    "Temperature of DENL (TDENL)": "2.930000E+02 K",
    "Heat of Vaporizaiton (HVAP)": "3.514600E+04 kJ/kg-mol",
    "Temperature of HVAP (THVAP)": "3.884000E+02 K",
    "Surface Tension (SRF)": "3.721000E+01 dyn/cm",
    "Temperature of SRF (TSRF)": "2.932000E+02 K",
    "Dielectric Constant (DIEL)": NaN,
    "Temperature of DIEL (TDIEL)": NaN,
    "Refractive Index (RFI)": NaN,
    "Temperature of RFI (TRFI)": NaN,
    "Lower Flammability Limit(FLL)": "1.800000E+00 % in Air",
    "Upper Flammability Limit(FLU)": "1.240000E+01 % in Air",
    "Flash Point (Open Cup Method)": "2.931500E+02 K",
    "Flash Point (Closed Cup Method)": NaN,
    "Autoignition Temperature (AIGT)": "7.553723E+02 K",
    "NFPA Rating (Health)": "2",
    "NFPA Rating (Fire)": "3",
    "NFPA Rating (Safety)": NaN,
    "Class": "Amines",
    "Subclass": "Imines",
    "SMILES": "C1=CC=NC=C1"
}