{
    "ID": "1346",
    "Name": "2-METHYLPYRIDINE",
    "Synonyms": "ALPA-PICOLINE, 2-PICOLINE",
    "CAS No.": "109-06-8",
    "Formula": "C6H7N",
    "Molecular Wt. (WT)": "9.31280E+01",
    "Normal Boiling Point Temp. (TB)": "4.02530E+02 K",
    "Freezing Point Temp. (TF)": "2.06470E+02 K",
    "Triple Point Temp. (TT)": "2.06450E+02 K",
    "Triple Point Press. (PT)": NaN,
    "Critical Temperature. (TC)": "6.21000E+02 K",
    "Critical Pressure (PC)": "4.60000E+03 kPa",
    "Critical Volume (VC)": "2.92000E-01 m^3/kg-mol",
    "Critical Compressibility (ZC)": "2.60143E-01",
    "Accentric Factor (ACCF)": "2.99000E-01",
    "Vapor Pressure": {
        "Equation Name": "KDB Correlation Equation",
        "Equation": "ln(Pvp) = A*ln(T) + B/T + C + D*T^2 where Pvp in kPa, T in K",
        "Coefficient A": "-8.990761E+00",
        "Coefficient B": "-7.532846E+03",
        "Coefficient C": "7.647157E+01",
        "Coefficient D": "4.843904E-06",
        "Coefficient E": NaN,
        "Coefficient F": NaN,
        "Coefficient G": NaN,
        "T range, from": "206.44 K",
        "T range, to": "621.00 K"
    },
    "Heat Capacity (Ideal Gas)": {
        "Equation Name": "Polynomial Equation",
        "Equation": "Cp = A + B*T + C*T^2 + D*T^3 + E*T^4  where Cp in kJ/kg-mol , T in K",
        "Coefficient A": "-3.626000E+01",
        "Coefficient B": "5.584000E-01",
        "Coefficient C": "-3.704000E-04",
        "Coefficient D": "9.663E-08",
        "Coefficient E": "0",
        "Coefficient F": NaN,
        "Coefficient G": NaN,
        "T range, from": NaN,
        "T range, to": NaN
    },
    "Heat Capacity (Liquid)": NaN,
    "Viscosity (Gas, Low P)": NaN,
    "Viscosity (Liquid)": NaN,
    "Themal Conductivity (Gas, Low P)": NaN,
    "Themal Conductivity (Liquid)": NaN,
    "Surface Tension": NaN,
    "Partial Molar Volume (VOLP)": "9.903000E-02 m^3/kg-mol",
    "Solubility Parameters (SOLP)": "1.964073E+04 (J/cm^3)^0.5",
    "SRK accentric factor (WSRK)": NaN,
    "COSTALD Characteristic Volume (VSTAR)": NaN,
    "Rackett parameter (ZRA)": NaN,
    "Aniline Point (ANP)": NaN,
    "H(formation,ideal gas)at 25 C": "9.902001E+04 kJ/kg-mol",
    "G(formation,ideal gas) at 25 C": "1.772000E+05 kJ/kg-mol",
    "Heat of Combustion, Gross form (HCB1)": NaN,
    "Heat of Combustion, Net form (HCB2)": NaN,
    "Van der Waals Volume (VDWV)": NaN,
    "Van der Waals Area (VDWA)": NaN,
    "UNIQUAC Ri Parameter (RI)": "3.734300E+00",
    "UNIQUAC Qi Parameter (QI)": "2.681000E+00",
    "Dipole Moment (DM)": "1.900000E+00 debye",
    "Radius of Gyration (GYRAD)": NaN,
    "Liquid Density (DENL)": "1.020101E-02 g-mol/cm^3",
    "Temperature of DENL (TDENL)": "2.880000E+02 K",
    "Heat of Vaporizaiton (HVAP)": NaN,
    "Temperature of HVAP (THVAP)": NaN,
    "Surface Tension (SRF)": NaN,
    "Temperature of SRF (TSRF)": NaN,
    "Dielectric Constant (DIEL)": NaN,
    "Temperature of DIEL (TDIEL)": NaN,
    "Refractive Index (RFI)": NaN,
    "Temperature of RFI (TRFI)": NaN,
    "Lower Flammability Limit(FLL)": NaN,
    "Upper Flammability Limit(FLU)": NaN,
    "Flash Point (Open Cup Method)": NaN,
    "Flash Point (Closed Cup Method)": NaN,
    "Autoignition Temperature (AIGT)": NaN,
    "NFPA Rating (Health)": 2.0,
    "NFPA Rating (Fire)": 2.0,
    "NFPA Rating (Safety)": NaN,
    "Class": "Amines",
    "Subclass": "Imines",
    "SMILES": "CC1=CC=CC=N1"
}