{
    "ID": "1347",
    "Name": "3-METHYLPYRIDINE",
    "Synonyms": "BETA-PICOLINE, 3-PICOLINE",
    "CAS No.": "108-99-6",
    "Formula": "C6H7N",
    "Molecular Wt. (WT)": "9.31280E+01",
    "Normal Boiling Point Temp. (TB)": "4.17290E+02 K",
    "Freezing Point Temp. (TF)": "2.55010E+02 K",
    "Triple Point Temp. (TT)": "2.55010E+02 K",
    "Triple Point Press. (PT)": NaN,
    "Critical Temperature. (TC)": "6.45000E+02 K",
    "Critical Pressure (PC)": "4.48000E+03 kPa",
    "Critical Volume (VC)": "2.88000E-01 m^3/kg-mol",
    "Critical Compressibility (ZC)": "2.40588E-01",
    "Accentric Factor (ACCF)": "3.06000E-01",
    "Vapor Pressure": {
        "Equation Name": "KDB Correlation Equation",
        "Equation": "ln(Pvp) = A*ln(T) + B/T + C + D*T^2 where Pvp in kPa, T in K",
        "Coefficient A": "-8.936875E+00",
        "Coefficient B": "-7.794544E+03",
        "Coefficient C": "7.645393E+01",
        "Coefficient D": "4.408042E-06",
        "Coefficient E": NaN,
        "Coefficient F": NaN,
        "Coefficient G": NaN,
        "T range, from": "255.01 K",
        "T range, to": "645.00 K"
    },
    "Heat Capacity (Ideal Gas)": {
        "Equation Name": "Polynomial Equation",
        "Equation": "Cp = A + B*T + C*T^2 + D*T^3 + E*T^4  where Cp in kJ/kg-mol , T in K",
        "Coefficient A": "-3.709000E+01",
        "Coefficient B": "5.600000E-01",
        "Coefficient C": "-3.719000E-04",
        "Coefficient D": "9.685E-08",
        "Coefficient E": "0",
        "Coefficient F": NaN,
        "Coefficient G": NaN,
        "T range, from": NaN,
        "T range, to": NaN
    },
    "Heat Capacity (Liquid)": NaN,
    "Viscosity (Gas, Low P)": NaN,
    "Viscosity (Liquid)": NaN,
    "Themal Conductivity (Gas, Low P)": NaN,
    "Themal Conductivity (Liquid)": NaN,
    "Surface Tension": NaN,
    "Partial Molar Volume (VOLP)": "9.788000E-02 m^3/kg-mol",
    "Solubility Parameters (SOLP)": "2.030346E+04 (J/cm^3)^0.5",
    "SRK accentric factor (WSRK)": NaN,
    "COSTALD Characteristic Volume (VSTAR)": NaN,
    "Rackett parameter (ZRA)": NaN,
    "Aniline Point (ANP)": NaN,
    "H(formation,ideal gas)at 25 C": "1.062000E+05 kJ/kg-mol",
    "G(formation,ideal gas) at 25 C": "1.844000E+05 kJ/kg-mol",
    "Heat of Combustion, Gross form (HCB1)": NaN,
    "Heat of Combustion, Net form (HCB2)": NaN,
    "Van der Waals Volume (VDWV)": NaN,
    "Van der Waals Area (VDWA)": NaN,
    "UNIQUAC Ri Parameter (RI)": "3.734300E+00",
    "UNIQUAC Qi Parameter (QI)": "2.681000E+00",
    "Dipole Moment (DM)": "2.400000E+00 debye",
    "Radius of Gyration (GYRAD)": NaN,
    "Liquid Density (DENL)": "1.031913E-02 g-mol/cm^3",
    "Temperature of DENL (TDENL)": "2.880000E+02 K",
    "Heat of Vaporizaiton (HVAP)": NaN,
    "Temperature of HVAP (THVAP)": NaN,
    "Surface Tension (SRF)": NaN,
    "Temperature of SRF (TSRF)": NaN,
    "Dielectric Constant (DIEL)": NaN,
    "Temperature of DIEL (TDIEL)": NaN,
    "Refractive Index (RFI)": NaN,
    "Temperature of RFI (TRFI)": NaN,
    "Lower Flammability Limit(FLL)": NaN,
    "Upper Flammability Limit(FLU)": NaN,
    "Flash Point (Open Cup Method)": NaN,
    "Flash Point (Closed Cup Method)": NaN,
    "Autoignition Temperature (AIGT)": NaN,
    "NFPA Rating (Health)": NaN,
    "NFPA Rating (Fire)": NaN,
    "NFPA Rating (Safety)": NaN,
    "Class": "Amines",
    "Subclass": "Imines",
    "SMILES": "CC1=CN=CC=C1"
}