{
    "ID": "1386",
    "Name": "ACETONITRILE",
    "Synonyms": "ETHANENITIRILE, CYANOMETHANE, METHYL CYANIDE",
    "CAS No.": "75-05-8",
    "Formula": "C2H3N",
    "Molecular Wt. (WT)": "4.10524E+01",
    "Normal Boiling Point Temp. (TB)": "3.54800E+02 K",
    "Freezing Point Temp. (TF)": "2.29320E+02 K",
    "Triple Point Temp. (TT)": NaN,
    "Triple Point Press. (PT)": NaN,
    "Critical Temperature. (TC)": "5.45500E+02 K",
    "Critical Pressure (PC)": "4.85000E+03 kPa",
    "Critical Volume (VC)": "1.73000E-01 m^3/kg-mol",
    "Critical Compressibility (ZC)": "1.84993E-01",
    "Accentric Factor (ACCF)": "3.27000E-01",
    "Vapor Pressure": {
        "Equation Name": "KDB Correlation Equation",
        "Equation": "ln(Pvp) = A*ln(T) + B/T + C + D*T^2 where Pvp in kPa, T in K",
        "Coefficient A": "-3.881710E+00",
        "Coefficient B": "-4.999618E+03",
        "Coefficient C": "4.105901E+01",
        "Coefficient D": "3.515956E-06",
        "Coefficient E": NaN,
        "Coefficient F": NaN,
        "Coefficient G": NaN,
        "T range, from": "229.32 K",
        "T range, to": "545.50 K"
    },
    "Heat Capacity (Ideal Gas)": {
        "Equation Name": "Polynomial Equation",
        "Equation": "Cp = A + B*T + C*T^2 + D*T^3 + E*T^4  where Cp in kJ/kg-mol , T in K",
        "Coefficient A": "2.048000E+01",
        "Coefficient B": "1.196000E-01",
        "Coefficient C": "-4.492000E-05",
        "Coefficient D": "3.203E-09",
        "Coefficient E": "0",
        "Coefficient F": NaN,
        "Coefficient G": NaN,
        "T range, from": NaN,
        "T range, to": NaN
    },
    "Heat Capacity (Liquid)": NaN,
    "Viscosity (Gas, Low P)": NaN,
    "Viscosity (Liquid)": {
        "Equation Name": "Power Law",
        "Equation": "VISL = A *T^B where T in K and VISL in cP.",
        "Coefficient A": "3851000",
        "Coefficient B": "-2.849",
        "Coefficient C": "0",
        "Coefficient D": "0",
        "Coefficient E": NaN,
        "Coefficient F": NaN,
        "Coefficient G": NaN,
        "T range, from": "273.15 K",
        "T range, to": "298.15 K"
    },
    "Themal Conductivity (Gas, Low P)": NaN,
    "Themal Conductivity (Liquid)": NaN,
    "Surface Tension": NaN,
    "Partial Molar Volume (VOLP)": "5.286000E-02 m^3/kg-mol",
    "Solubility Parameters (SOLP)": "2.508580E+04 (J/cm^3)^0.5",
    "SRK accentric factor (WSRK)": "3.076000E-01",
    "COSTALD Characteristic Volume (VSTAR)": "1.606000E-01 m^3/kg-mol",
    "Rackett parameter (ZRA)": "1.987000E-01",
    "Aniline Point (ANP)": NaN,
    "H(formation,ideal gas)at 25 C": "8.792000E+04 kJ/kg-mol",
    "G(formation,ideal gas) at 25 C": "1.057000E+05 kJ/kg-mol",
    "Heat of Combustion, Gross form (HCB1)": NaN,
    "Heat of Combustion, Net form (HCB2)": NaN,
    "Van der Waals Volume (VDWV)": NaN,
    "Van der Waals Area (VDWA)": NaN,
    "UNIQUAC Ri Parameter (RI)": "1.870100E+00",
    "UNIQUAC Qi Parameter (QI)": "1.724000E+00",
    "Dipole Moment (DM)": "3.500000E+00 debye",
    "Radius of Gyration (GYRAD)": "1.821000E+00",
    "Liquid Density (DENL)": "1.904883E-02 g-mol/cm^3",
    "Temperature of DENL (TDENL)": "2.930000E+02 K",
    "Heat of Vaporizaiton (HVAP)": "3.138000E+04 kJ/kg-mol",
    "Temperature of HVAP (THVAP)": "3.528000E+02 K",
    "Surface Tension (SRF)": "2.929000E+01 dyn/cm",
    "Temperature of SRF (TSRF)": "2.932000E+02 K",
    "Dielectric Constant (DIEL)": NaN,
    "Temperature of DIEL (TDIEL)": NaN,
    "Refractive Index (RFI)": NaN,
    "Temperature of RFI (TRFI)": NaN,
    "Lower Flammability Limit(FLL)": "4.400000E+00 % in Air",
    "Upper Flammability Limit(FLU)": "1.600000E+01 % in Air",
    "Flash Point (Open Cup Method)": NaN,
    "Flash Point (Closed Cup Method)": "2.787056E+02 K",
    "Autoignition Temperature (AIGT)": "7.970389E+02 K",
    "NFPA Rating (Health)": "2",
    "NFPA Rating (Fire)": "3",
    "NFPA Rating (Safety)": "1",
    "Class": "Nitriles",
    "Subclass": "Aliphatic Nitriles",
    "SMILES": "CC#N"
}