{
    "ID": "1387",
    "Name": "PROPIONITRILE",
    "Synonyms": "CYANOETHANE, ETHER CYANATUS, HYDROCYANIC ETHER",
    "CAS No.": "107-12-0",
    "Formula": "C3H5N",
    "Molecular Wt. (WT)": "5.50792E+01",
    "Normal Boiling Point Temp. (TB)": "3.70290E+02 K",
    "Freezing Point Temp. (TF)": "1.80260E+02 K",
    "Triple Point Temp. (TT)": NaN,
    "Triple Point Press. (PT)": NaN,
    "Critical Temperature. (TC)": "5.61300E+02 K",
    "Critical Pressure (PC)": "4.26000E+03 kPa",
    "Critical Volume (VC)": "2.29000E-01 m^3/kg-mol",
    "Critical Compressibility (ZC)": "2.09032E-01",
    "Accentric Factor (ACCF)": "3.13000E-01",
    "Vapor Pressure": {
        "Equation Name": "KDB Correlation Equation",
        "Equation": "ln(Pvp) = A*ln(T) + B/T + C + D*T^2 where Pvp in kPa, T in K",
        "Coefficient A": "-8.139579E+00",
        "Coefficient B": "-6.511826E+03",
        "Coefficient C": "6.953024E+01",
        "Coefficient D": "6.114366E-06",
        "Coefficient E": NaN,
        "Coefficient F": NaN,
        "Coefficient G": NaN,
        "T range, from": "180.26 K",
        "T range, to": "564.40 K"
    },
    "Heat Capacity (Ideal Gas)": {
        "Equation Name": "Polynomial Equation",
        "Equation": "Cp = A + B*T + C*T^2 + D*T^3 + E*T^4  where Cp in kJ/kg-mol , T in K",
        "Coefficient A": "1.540000E+01",
        "Coefficient B": "2.245000E-01",
        "Coefficient C": "-1.100000E-04",
        "Coefficient D": "1.954E-08",
        "Coefficient E": "0",
        "Coefficient F": NaN,
        "Coefficient G": NaN,
        "T range, from": NaN,
        "T range, to": NaN
    },
    "Heat Capacity (Liquid)": NaN,
    "Viscosity (Gas, Low P)": NaN,
    "Viscosity (Liquid)": NaN,
    "Themal Conductivity (Gas, Low P)": NaN,
    "Themal Conductivity (Liquid)": NaN,
    "Surface Tension": NaN,
    "Partial Molar Volume (VOLP)": "7.090000E-02 m^3/kg-mol",
    "Solubility Parameters (SOLP)": "2.251054E+04 (J/cm^3)^0.5",
    "SRK accentric factor (WSRK)": NaN,
    "COSTALD Characteristic Volume (VSTAR)": NaN,
    "Rackett parameter (ZRA)": NaN,
    "Aniline Point (ANP)": NaN,
    "H(formation,ideal gas)at 25 C": "5.066000E+04 kJ/kg-mol",
    "G(formation,ideal gas) at 25 C": "9.621000E+04 kJ/kg-mol",
    "Heat of Combustion, Gross form (HCB1)": NaN,
    "Heat of Combustion, Net form (HCB2)": NaN,
    "Van der Waals Volume (VDWV)": NaN,
    "Van der Waals Area (VDWA)": NaN,
    "UNIQUAC Ri Parameter (RI)": "2.544500E+00",
    "UNIQUAC Qi Parameter (QI)": "2.264000E+00",
    "Dipole Moment (DM)": "3.700000E+00 debye",
    "Radius of Gyration (GYRAD)": NaN,
    "Liquid Density (DENL)": "1.419774E-02 g-mol/cm^3",
    "Temperature of DENL (TDENL)": "2.930000E+02 K",
    "Heat of Vaporizaiton (HVAP)": "3.225900E+04 kJ/kg-mol",
    "Temperature of HVAP (THVAP)": "3.703000E+02 K",
    "Surface Tension (SRF)": "2.732000E+01 dyn/cm",
    "Temperature of SRF (TSRF)": "2.932000E+02 K",
    "Dielectric Constant (DIEL)": NaN,
    "Temperature of DIEL (TDIEL)": NaN,
    "Refractive Index (RFI)": NaN,
    "Temperature of RFI (TRFI)": NaN,
    "Lower Flammability Limit(FLL)": NaN,
    "Upper Flammability Limit(FLU)": NaN,
    "Flash Point (Open Cup Method)": NaN,
    "Flash Point (Closed Cup Method)": NaN,
    "Autoignition Temperature (AIGT)": NaN,
    "NFPA Rating (Health)": 4.0,
    "NFPA Rating (Fire)": 3.0,
    "NFPA Rating (Safety)": 1.0,
    "Class": "Nitriles",
    "Subclass": "Aliphatic Nitriles",
    "SMILES": "CCC#N"
}