{
    "ID": "1388",
    "Name": "N-BUTYRONITRILE",
    "Synonyms": "PROPYL CYANIDE, 1-CYANOPROPANE, BUTYRIC ACID NITRILE",
    "CAS No.": "109-74-0",
    "Formula": "C4H7N",
    "Molecular Wt. (WT)": "6.91060E+01",
    "Normal Boiling Point Temp. (TB)": "3.90700E+02 K",
    "Freezing Point Temp. (TF)": "1.61200E+02 K",
    "Triple Point Temp. (TT)": NaN,
    "Triple Point Press. (PT)": NaN,
    "Critical Temperature. (TC)": "5.85400E+02 K",
    "Critical Pressure (PC)": "3.88000E+03 kPa",
    "Critical Volume (VC)": "2.85500E-01 m^3/kg-mol",
    "Critical Compressibility (ZC)": "2.27588E-01",
    "Accentric Factor (ACCF)": "3.73000E-01",
    "Vapor Pressure": {
        "Equation Name": "KDB Correlation Equation",
        "Equation": "ln(Pvp) = A*ln(T) + B/T + C + D*T^2 where Pvp in kPa, T in K",
        "Coefficient A": "-8.672004E+00",
        "Coefficient B": "-7.116018E+03",
        "Coefficient C": "7.373251E+01",
        "Coefficient D": "5.600727E-06",
        "Coefficient E": NaN,
        "Coefficient F": NaN,
        "Coefficient G": NaN,
        "T range, from": "161.25 K",
        "T range, to": "582.25 K"
    },
    "Heat Capacity (Ideal Gas)": {
        "Equation Name": "Polynomial Equation",
        "Equation": "Cp = A + B*T + C*T^2 + D*T^3 + E*T^4  where Cp in kJ/kg-mol , T in K",
        "Coefficient A": "1.521000E+01",
        "Coefficient B": "3.206000E-01",
        "Coefficient C": "-1.638000E-04",
        "Coefficient D": "2.982E-08",
        "Coefficient E": "0",
        "Coefficient F": NaN,
        "Coefficient G": NaN,
        "T range, from": NaN,
        "T range, to": NaN
    },
    "Heat Capacity (Liquid)": NaN,
    "Viscosity (Gas, Low P)": NaN,
    "Viscosity (Liquid)": NaN,
    "Themal Conductivity (Gas, Low P)": NaN,
    "Themal Conductivity (Liquid)": NaN,
    "Surface Tension": NaN,
    "Partial Molar Volume (VOLP)": "8.708000E-02 m^3/kg-mol",
    "Solubility Parameters (SOLP)": "2.044255E+04 (J/cm^3)^0.5",
    "SRK accentric factor (WSRK)": NaN,
    "COSTALD Characteristic Volume (VSTAR)": NaN,
    "Rackett parameter (ZRA)": NaN,
    "Aniline Point (ANP)": NaN,
    "H(formation,ideal gas)at 25 C": "3.410000E+04 kJ/kg-mol",
    "G(formation,ideal gas) at 25 C": "1.087000E+05 kJ/kg-mol",
    "Heat of Combustion, Gross form (HCB1)": NaN,
    "Heat of Combustion, Net form (HCB2)": NaN,
    "Van der Waals Volume (VDWV)": NaN,
    "Van der Waals Area (VDWA)": NaN,
    "UNIQUAC Ri Parameter (RI)": "3.218900E+00",
    "UNIQUAC Qi Parameter (QI)": "2.804000E+00",
    "Dipole Moment (DM)": "3.800000E+00 debye",
    "Radius of Gyration (GYRAD)": NaN,
    "Liquid Density (DENL)": "1.146065E-02 g-mol/cm^3",
    "Temperature of DENL (TDENL)": "2.930000E+02 K",
    "Heat of Vaporizaiton (HVAP)": "3.439200E+04 kJ/kg-mol",
    "Temperature of HVAP (THVAP)": "3.904000E+02 K",
    "Surface Tension (SRF)": "2.744000E+01 dyn/cm",
    "Temperature of SRF (TSRF)": "2.932000E+02 K",
    "Dielectric Constant (DIEL)": NaN,
    "Temperature of DIEL (TDIEL)": NaN,
    "Refractive Index (RFI)": NaN,
    "Temperature of RFI (TRFI)": NaN,
    "Lower Flammability Limit(FLL)": NaN,
    "Upper Flammability Limit(FLU)": NaN,
    "Flash Point (Open Cup Method)": NaN,
    "Flash Point (Closed Cup Method)": NaN,
    "Autoignition Temperature (AIGT)": NaN,
    "NFPA Rating (Health)": 3.0,
    "NFPA Rating (Fire)": 3.0,
    "NFPA Rating (Safety)": NaN,
    "Class": "Nitriles",
    "Subclass": "Aliphatic Nitriles",
    "SMILES": "CCCC#N"
}