{
    "ID": "1396",
    "Name": "BENZONITRILE",
    "Synonyms": "CYANOBENZENE, BENZOIC ACID NITRILE, PHENYL CYANIDE",
    "CAS No.": "100-47-0",
    "Formula": "C7H5N",
    "Molecular Wt. (WT)": "1.03123E+02",
    "Normal Boiling Point Temp. (TB)": "4.64300E+02 K",
    "Freezing Point Temp. (TF)": "2.60400E+02 K",
    "Triple Point Temp. (TT)": NaN,
    "Triple Point Press. (PT)": NaN,
    "Critical Temperature. (TC)": "6.99400E+02 K",
    "Critical Pressure (PC)": "4.21000E+03 kPa",
    "Critical Volume (VC)": NaN,
    "Critical Compressibility (ZC)": NaN,
    "Accentric Factor (ACCF)": "3.62000E-01",
    "Vapor Pressure": {
        "Equation Name": "KDB Correlation Equation",
        "Equation": "ln(Pvp) = A*ln(T) + B/T + C + D*T^2 where Pvp in kPa, T in K",
        "Coefficient A": "-5.691853E+00",
        "Coefficient B": "-7.668916E+03",
        "Coefficient C": "5.571808E+01",
        "Coefficient D": "1.771132E-06",
        "Coefficient E": NaN,
        "Coefficient F": NaN,
        "Coefficient G": NaN,
        "T range, from": "260.40 K",
        "T range, to": "699.35 K"
    },
    "Heat Capacity (Ideal Gas)": {
        "Equation Name": "Polynomial Equation",
        "Equation": "Cp = A + B*T + C*T^2 + D*T^3 + E*T^4  where Cp in kJ/kg-mol , T in K",
        "Coefficient A": "-2.605000E+01",
        "Coefficient B": "5.732000E-01",
        "Coefficient C": "-4.430000E-04",
        "Coefficient D": "1.349E-07",
        "Coefficient E": "0",
        "Coefficient F": NaN,
        "Coefficient G": NaN,
        "T range, from": NaN,
        "T range, to": NaN
    },
    "Heat Capacity (Liquid)": NaN,
    "Viscosity (Gas, Low P)": NaN,
    "Viscosity (Liquid)": NaN,
    "Themal Conductivity (Gas, Low P)": NaN,
    "Themal Conductivity (Liquid)": NaN,
    "Surface Tension": NaN,
    "Partial Molar Volume (VOLP)": "1.030600E-01 m^3/kg-mol",
    "Solubility Parameters (SOLP)": "2.145302E+04 (J/cm^3)^0.5",
    "SRK accentric factor (WSRK)": "3.566000E-01",
    "COSTALD Characteristic Volume (VSTAR)": "3.257000E-01 m^3/kg-mol",
    "Rackett parameter (ZRA)": NaN,
    "Aniline Point (ANP)": NaN,
    "H(formation,ideal gas)at 25 C": "2.190000E+05 kJ/kg-mol",
    "G(formation,ideal gas) at 25 C": "2.610000E+05 kJ/kg-mol",
    "Heat of Combustion, Gross form (HCB1)": NaN,
    "Heat of Combustion, Net form (HCB2)": NaN,
    "Van der Waals Volume (VDWV)": NaN,
    "Van der Waals Area (VDWA)": NaN,
    "UNIQUAC Ri Parameter (RI)": "3.990000E+00",
    "UNIQUAC Qi Parameter (QI)": "3.010000E+00",
    "Dipole Moment (DM)": "3.500000E+00 debye",
    "Radius of Gyration (GYRAD)": NaN,
    "Liquid Density (DENL)": "9.794110E-03 g-mol/cm^3",
    "Temperature of DENL (TDENL)": "2.880000E+02 K",
    "Heat of Vaporizaiton (HVAP)": "4.745100E+04 kJ/kg-mol",
    "Temperature of HVAP (THVAP)": "4.641000E+02 K",
    "Surface Tension (SRF)": "3.937000E+01 dyn/cm",
    "Temperature of SRF (TSRF)": "2.932000E+02 K",
    "Dielectric Constant (DIEL)": NaN,
    "Temperature of DIEL (TDIEL)": NaN,
    "Refractive Index (RFI)": NaN,
    "Temperature of RFI (TRFI)": NaN,
    "Lower Flammability Limit(FLL)": NaN,
    "Upper Flammability Limit(FLU)": NaN,
    "Flash Point (Open Cup Method)": "3.481500E+02 K",
    "Flash Point (Closed Cup Method)": NaN,
    "Autoignition Temperature (AIGT)": NaN,
    "NFPA Rating (Health)": "1",
    "NFPA Rating (Fire)": "1",
    "NFPA Rating (Safety)": "1",
    "Class": "Nitriles",
    "Subclass": "Aromatic Nitriles",
    "SMILES": "C1=CC=C(C=C1)C#N"
}