{
    "ID": "14",
    "Name": "N-TETRADECANE",
    "Synonyms": "TETRADECANE",
    "CAS No.": "629-59-4",
    "Formula": "C14H30",
    "Molecular Wt. (WT)": "1.98391E+02",
    "Normal Boiling Point Temp. (TB)": "5.26730E+02 K",
    "Freezing Point Temp. (TF)": "2.79010E+02 K",
    "Triple Point Temp. (TT)": NaN,
    "Triple Point Press. (PT)": NaN,
    "Critical Temperature. (TC)": "6.93000E+02 K",
    "Critical Pressure (PC)": "1.57000E+03 kPa",
    "Critical Volume (VC)": "8.94000E-01 m^3/kg-mol",
    "Critical Compressibility (ZC)": "2.43594E-01",
    "Accentric Factor (ACCF)": "5.81000E-01",
    "Vapor Pressure": {
        "Equation Name": "KDB Correlation Equation",
        "Equation": "ln(Pvp) = A*ln(T) + B/T + C + D*T^2 where Pvp in kPa, T in K",
        "Coefficient A": "-2.498538E+01",
        "Coefficient B": "-1.580655E+04",
        "Coefficient C": "1.878225E+02",
        "Coefficient D": "1.216283E-05",
        "Coefficient E": NaN,
        "Coefficient F": NaN,
        "Coefficient G": NaN,
        "T range, from": "279.01 K",
        "T range, to": "692.40 K"
    },
    "Heat Capacity (Ideal Gas)": {
        "Equation Name": "Polynomial Equation",
        "Equation": "Cp = A + B*T + C*T^2 + D*T^3 + E*T^4  where Cp in kJ/kg-mol , T in K",
        "Coefficient A": "1.596318E+02",
        "Coefficient B": "-5.156302E-02",
        "Coefficient C": "3.173942E-03",
        "Coefficient D": "-4.372543E-06",
        "Coefficient E": "1.835275E-09",
        "Coefficient F": NaN,
        "Coefficient G": NaN,
        "T range, from": NaN,
        "T range, to": NaN
    },
    "Heat Capacity (Liquid)": NaN,
    "Viscosity (Gas, Low P)": NaN,
    "Viscosity (Liquid)": {
        "Equation Name": "Andrade Equation",
        "Equation": "ln (VISL) = A + B/ T  where T in K and VISL in cP.",
        "Coefficient A": "-4.615",
        "Coefficient B": "1588",
        "Coefficient C": "0",
        "Coefficient D": "0",
        "Coefficient E": NaN,
        "Coefficient F": NaN,
        "Coefficient G": NaN,
        "T range, from": "278.15 K",
        "T range, to": "528.15 K"
    },
    "Themal Conductivity (Gas, Low P)": NaN,
    "Themal Conductivity (Liquid)": NaN,
    "Surface Tension": NaN,
    "Partial Molar Volume (VOLP)": "2.600900E-01 m^3/kg-mol",
    "Solubility Parameters (SOLP)": "1.621863E+04 (J/cm^3)^0.5",
    "SRK accentric factor (WSRK)": "6.821000E-01",
    "COSTALD Characteristic Volume (VSTAR)": "9.022000E-01 m^3/kg-mol",
    "Rackett parameter (ZRA)": NaN,
    "Aniline Point (ANP)": NaN,
    "H(formation,ideal gas)at 25 C": "-3.323000E+05 kJ/kg-mol",
    "G(formation,ideal gas) at 25 C": "6.686000E+04 kJ/kg-mol",
    "Heat of Combustion, Gross form (HCB1)": NaN,
    "Heat of Combustion, Net form (HCB2)": NaN,
    "Van der Waals Volume (VDWV)": NaN,
    "Van der Waals Area (VDWA)": NaN,
    "UNIQUAC Ri Parameter (RI)": 9.895,
    "UNIQUAC Qi Parameter (QI)": 8.176,
    "Dipole Moment (DM)": NaN,
    "Radius of Gyration (GYRAD)": NaN,
    "Liquid Density (DENL)": "3.845941E-03 g-mol/cm^3",
    "Temperature of DENL (TDENL)": "2.930000E+02 K",
    "Heat of Vaporizaiton (HVAP)": "4.761400E+04 kJ/kg-mol",
    "Temperature of HVAP (THVAP)": "5.261000E+02 K",
    "Surface Tension (SRF)": "2.656000E+01 dyn/cm",
    "Temperature of SRF (TSRF)": "2.932000E+02 K",
    "Dielectric Constant (DIEL)": NaN,
    "Temperature of DIEL (TDIEL)": NaN,
    "Refractive Index (RFI)": NaN,
    "Temperature of RFI (TRFI)": NaN,
    "Lower Flammability Limit(FLL)": NaN,
    "Upper Flammability Limit(FLU)": NaN,
    "Flash Point (Open Cup Method)": NaN,
    "Flash Point (Closed Cup Method)": NaN,
    "Autoignition Temperature (AIGT)": NaN,
    "NFPA Rating (Health)": NaN,
    "NFPA Rating (Fire)": NaN,
    "NFPA Rating (Safety)": NaN,
    "Class": "Paraffinic Hydrocarbons",
    "Subclass": "n-Alkanes",
    "SMILES": "CCCCCCCCCCCCCC"
}