{
    "ID": "1401",
    "Name": "ACRYLONITRILE",
    "Synonyms": "ACRYLON, CARBACRYL, CYANOETHYLENE",
    "CAS No.": "107-13-1",
    "Formula": "C3H3N",
    "Molecular Wt. (WT)": "5.30634E+01",
    "Normal Boiling Point Temp. (TB)": "3.50500E+02 K",
    "Freezing Point Temp. (TF)": "1.89500E+02 K",
    "Triple Point Temp. (TT)": "1.89630E+02 K",
    "Triple Point Press. (PT)": NaN,
    "Critical Temperature. (TC)": "5.36000E+02 K",
    "Critical Pressure (PC)": "4.56000E+03 kPa",
    "Critical Volume (VC)": "2.10000E-01 m^3/kg-mol",
    "Critical Compressibility (ZC)": "2.14873E-01",
    "Accentric Factor (ACCF)": "3.50000E-01",
    "Vapor Pressure": {
        "Equation Name": "KDB Correlation Equation",
        "Equation": "ln(Pvp) = A*ln(T) + B/T + C + D*T^2 where Pvp in kPa, T in K",
        "Coefficient A": "-8.994987E+00",
        "Coefficient B": "-6.151930E+03",
        "Coefficient C": "7.370472E+01",
        "Coefficient D": "9.440614E-06",
        "Coefficient E": NaN,
        "Coefficient F": NaN,
        "Coefficient G": NaN,
        "T range, from": "189.63 K",
        "T range, to": "535.00 K"
    },
    "Heat Capacity (Ideal Gas)": {
        "Equation Name": "Polynomial Equation",
        "Equation": "Cp = A + B*T + C*T^2 + D*T^3 + E*T^4  where Cp in kJ/kg-mol , T in K",
        "Coefficient A": "1.069000E+01",
        "Coefficient B": "2.208000E-01",
        "Coefficient C": "-1.565000E-04",
        "Coefficient D": "4.601E-08",
        "Coefficient E": "0",
        "Coefficient F": NaN,
        "Coefficient G": NaN,
        "T range, from": NaN,
        "T range, to": NaN
    },
    "Heat Capacity (Liquid)": NaN,
    "Viscosity (Gas, Low P)": NaN,
    "Viscosity (Liquid)": NaN,
    "Themal Conductivity (Gas, Low P)": NaN,
    "Themal Conductivity (Liquid)": NaN,
    "Surface Tension": NaN,
    "Partial Molar Volume (VOLP)": "6.630000E-02 m^3/kg-mol",
    "Solubility Parameters (SOLP)": "2.253917E+04 (J/cm^3)^0.5",
    "SRK accentric factor (WSRK)": "3.369000E-01",
    "COSTALD Characteristic Volume (VSTAR)": "1.918000E-01 m^3/kg-mol",
    "Rackett parameter (ZRA)": "2.275000E-01",
    "Aniline Point (ANP)": NaN,
    "H(formation,ideal gas)at 25 C": "1.851000E+05 kJ/kg-mol",
    "G(formation,ideal gas) at 25 C": "1.954000E+05 kJ/kg-mol",
    "Heat of Combustion, Gross form (HCB1)": NaN,
    "Heat of Combustion, Net form (HCB2)": NaN,
    "Van der Waals Volume (VDWV)": NaN,
    "Van der Waals Area (VDWA)": NaN,
    "UNIQUAC Ri Parameter (RI)": "2.314400E+00",
    "UNIQUAC Qi Parameter (QI)": "2.052000E+00",
    "Dipole Moment (DM)": "3.500000E+00 debye",
    "Radius of Gyration (GYRAD)": "2.443000E+00",
    "Liquid Density (DENL)": "1.518938E-02 g-mol/cm^3",
    "Temperature of DENL (TDENL)": "2.930000E+02 K",
    "Heat of Vaporizaiton (HVAP)": "3.263500E+04 kJ/kg-mol",
    "Temperature of HVAP (THVAP)": "3.505000E+02 K",
    "Surface Tension (SRF)": "2.663000E+01 dyn/cm",
    "Temperature of SRF (TSRF)": "2.982000E+02 K",
    "Dielectric Constant (DIEL)": NaN,
    "Temperature of DIEL (TDIEL)": NaN,
    "Refractive Index (RFI)": NaN,
    "Temperature of RFI (TRFI)": NaN,
    "Lower Flammability Limit(FLL)": "3.050000E+00 % in Air",
    "Upper Flammability Limit(FLU)": "1.700000E+01 % in Air",
    "Flash Point (Open Cup Method)": "2.720389E+02 K",
    "Flash Point (Closed Cup Method)": "2.725945E+02 K",
    "Autoignition Temperature (AIGT)": "7.542611E+02 K",
    "NFPA Rating (Health)": "4",
    "NFPA Rating (Fire)": "3",
    "NFPA Rating (Safety)": "2",
    "Class": "Nitriles",
    "Subclass": "Other Nitriles (Cyclic or Unsaturated)",
    "SMILES": "C=CC#N"
}