{
    "ID": "1421",
    "Name": "NITROMETHANE",
    "Synonyms": "NITROCARBOL",
    "CAS No.": "75-52-5",
    "Formula": "CH3NO2",
    "Molecular Wt. (WT)": "6.10402E+01",
    "Normal Boiling Point Temp. (TB)": "3.74340E+02 K",
    "Freezing Point Temp. (TF)": "2.44600E+02 K",
    "Triple Point Temp. (TT)": NaN,
    "Triple Point Press. (PT)": NaN,
    "Critical Temperature. (TC)": "5.88000E+02 K",
    "Critical Pressure (PC)": "5.87000E+03 kPa",
    "Critical Volume (VC)": "1.73000E-01 m^3/kg-mol",
    "Critical Compressibility (ZC)": "2.07716E-01",
    "Accentric Factor (ACCF)": "3.10000E-01",
    "Vapor Pressure": {
        "Equation Name": "KDB Correlation Equation",
        "Equation": "ln(Pvp) = A*ln(T) + B/T + C + D*T^2 where Pvp in kPa, T in K",
        "Coefficient A": "-1.020778E+01",
        "Coefficient B": "-7.217173E+03",
        "Coefficient C": "8.318124E+01",
        "Coefficient D": "8.369119E-06",
        "Coefficient E": NaN,
        "Coefficient F": NaN,
        "Coefficient G": NaN,
        "T range, from": "244.60 K",
        "T range, to": "588.15 K"
    },
    "Heat Capacity (Ideal Gas)": {
        "Equation Name": "Polynomial Equation",
        "Equation": "Cp = A + B*T + C*T^2 + D*T^3 + E*T^4  where Cp in kJ/kg-mol , T in K",
        "Coefficient A": "7.423000E+00",
        "Coefficient B": "1.978000E-01",
        "Coefficient C": "-1.081000E-04",
        "Coefficient D": "2.085E-08",
        "Coefficient E": "0",
        "Coefficient F": NaN,
        "Coefficient G": NaN,
        "T range, from": NaN,
        "T range, to": NaN
    },
    "Heat Capacity (Liquid)": NaN,
    "Viscosity (Gas, Low P)": NaN,
    "Viscosity (Liquid)": {
        "Equation Name": "Andrade Equation",
        "Equation": "ln (VISL) = A + B/ T  where T in K and VISL in cP.",
        "Coefficient A": "-3.989",
        "Coefficient B": "1042",
        "Coefficient C": "0",
        "Coefficient D": "0",
        "Coefficient E": NaN,
        "Coefficient F": NaN,
        "Coefficient G": NaN,
        "T range, from": "273.15 K",
        "T range, to": "363.15 K"
    },
    "Themal Conductivity (Gas, Low P)": NaN,
    "Themal Conductivity (Liquid)": NaN,
    "Surface Tension": NaN,
    "Partial Molar Volume (VOLP)": "5.396000E-02 m^3/kg-mol",
    "Solubility Parameters (SOLP)": "2.495693E+04 (J/cm^3)^0.5",
    "SRK accentric factor (WSRK)": "3.295000E-01",
    "COSTALD Characteristic Volume (VSTAR)": "1.626000E-01 m^3/kg-mol",
    "Rackett parameter (ZRA)": "2.305000E-01",
    "Aniline Point (ANP)": NaN,
    "H(formation,ideal gas)at 25 C": "-7.478000E+04 kJ/kg-mol",
    "G(formation,ideal gas) at 25 C": "-6.950000E+03 kJ/kg-mol",
    "Heat of Combustion, Gross form (HCB1)": NaN,
    "Heat of Combustion, Net form (HCB2)": NaN,
    "Van der Waals Volume (VDWV)": NaN,
    "Van der Waals Area (VDWA)": NaN,
    "UNIQUAC Ri Parameter (RI)": "2.008600E+00",
    "UNIQUAC Qi Parameter (QI)": "1.868000E+00",
    "Dipole Moment (DM)": "3.100000E+00 debye",
    "Radius of Gyration (GYRAD)": "2.306000E+00",
    "Liquid Density (DENL)": "1.864345E-02 g-mol/cm^3",
    "Temperature of DENL (TDENL)": "2.930000E+02 K",
    "Heat of Vaporizaiton (HVAP)": "3.441300E+04 kJ/kg-mol",
    "Temperature of HVAP (THVAP)": "3.740000E+02 K",
    "Surface Tension (SRF)": "3.748000E+01 dyn/cm",
    "Temperature of SRF (TSRF)": "2.932000E+02 K",
    "Dielectric Constant (DIEL)": NaN,
    "Temperature of DIEL (TDIEL)": NaN,
    "Refractive Index (RFI)": NaN,
    "Temperature of RFI (TRFI)": NaN,
    "Lower Flammability Limit(FLL)": "7.300000E+00 % in Air",
    "Upper Flammability Limit(FLU)": NaN,
    "Flash Point (Open Cup Method)": "3.081500E+02 K",
    "Flash Point (Closed Cup Method)": "3.164833E+02 K",
    "Autoignition Temperature (AIGT)": "6.914833E+02 K",
    "NFPA Rating (Health)": "1",
    "NFPA Rating (Fire)": "3",
    "NFPA Rating (Safety)": "4",
    "Class": "Other Nitrogen Derivatives",
    "Subclass": "Nitro Compound",
    "SMILES": "C[N+](=O)[O-]"
}