{
    "ID": "15",
    "Name": "N-PENTADECANE",
    "Synonyms": "PENTADECANE",
    "CAS No.": "629-62-9",
    "Formula": "C15H32",
    "Molecular Wt. (WT)": "2.12418E+02",
    "Normal Boiling Point Temp. (TB)": "5.43700E+02 K",
    "Freezing Point Temp. (TF)": "2.83000E+02 K",
    "Triple Point Temp. (TT)": NaN,
    "Triple Point Press. (PT)": NaN,
    "Critical Temperature. (TC)": "7.08000E+02 K",
    "Critical Pressure (PC)": "1.48000E+03 kPa",
    "Critical Volume (VC)": "9.66000E-01 m^3/kg-mol",
    "Critical Compressibility (ZC)": "2.42867E-01",
    "Accentric Factor (ACCF)": "7.06000E-01",
    "Vapor Pressure": {
        "Equation Name": "KDB Correlation Equation",
        "Equation": "ln(Pvp) = A*ln(T) + B/T + C + D*T^2 where Pvp in kPa, T in K",
        "Coefficient A": "-2.479227E+01",
        "Coefficient B": "-1.646311E+04",
        "Coefficient C": "1.878062E+02",
        "Coefficient D": "1.097405E-05",
        "Coefficient E": NaN,
        "Coefficient F": NaN,
        "Coefficient G": NaN,
        "T range, from": "283.10 K",
        "T range, to": "706.80 K"
    },
    "Heat Capacity (Ideal Gas)": {
        "Equation Name": "Polynomial Equation",
        "Equation": "Cp = A + B*T + C*T^2 + D*T^3 + E*T^4  where Cp in kJ/kg-mol , T in K",
        "Coefficient A": "1.690168E+02",
        "Coefficient B": "-4.238619E-02",
        "Coefficient C": "3.363712E-03",
        "Coefficient D": "-4.639286E-06",
        "Coefficient E": "1.943899E-09",
        "Coefficient F": NaN,
        "Coefficient G": NaN,
        "T range, from": NaN,
        "T range, to": NaN
    },
    "Heat Capacity (Liquid)": NaN,
    "Viscosity (Gas, Low P)": NaN,
    "Viscosity (Liquid)": {
        "Equation Name": "Andrade Equation",
        "Equation": "ln (VISL) = A + B/ T  where T in K and VISL in cP.",
        "Coefficient A": "-4.648",
        "Coefficient B": "1654",
        "Coefficient C": "0",
        "Coefficient D": "0",
        "Coefficient E": NaN,
        "Coefficient F": NaN,
        "Coefficient G": NaN,
        "T range, from": "283.15 K",
        "T range, to": "553.15 K"
    },
    "Themal Conductivity (Gas, Low P)": NaN,
    "Themal Conductivity (Liquid)": NaN,
    "Surface Tension": NaN,
    "Partial Molar Volume (VOLP)": NaN,
    "Solubility Parameters (SOLP)": "1.628000E+04 (J/cm^3)^0.5",
    "SRK accentric factor (WSRK)": "7.254000E-01",
    "COSTALD Characteristic Volume (VSTAR)": "9.772000E-01 m^3/kg-mol",
    "Rackett parameter (ZRA)": NaN,
    "Aniline Point (ANP)": NaN,
    "H(formation,ideal gas)at 25 C": "-3.530000E+05 kJ/kg-mol",
    "G(formation,ideal gas) at 25 C": "7.528000E+04 kJ/kg-mol",
    "Heat of Combustion, Gross form (HCB1)": NaN,
    "Heat of Combustion, Net form (HCB2)": NaN,
    "Van der Waals Volume (VDWV)": NaN,
    "Van der Waals Area (VDWA)": NaN,
    "UNIQUAC Ri Parameter (RI)": NaN,
    "UNIQUAC Qi Parameter (QI)": NaN,
    "Dipole Moment (DM)": NaN,
    "Radius of Gyration (GYRAD)": NaN,
    "Liquid Density (DENL)": "3.620224E-03 g-mol/cm^3",
    "Temperature of DENL (TDENL)": "2.930000E+02 K",
    "Heat of Vaporizaiton (HVAP)": "4.945500E+04 kJ/kg-mol",
    "Temperature of HVAP (THVAP)": "5.436000E+02 K",
    "Surface Tension (SRF)": "2.707000E+01 dyn/cm",
    "Temperature of SRF (TSRF)": "2.932000E+02 K",
    "Dielectric Constant (DIEL)": NaN,
    "Temperature of DIEL (TDIEL)": NaN,
    "Refractive Index (RFI)": NaN,
    "Temperature of RFI (TRFI)": NaN,
    "Lower Flammability Limit(FLL)": NaN,
    "Upper Flammability Limit(FLU)": NaN,
    "Flash Point (Open Cup Method)": NaN,
    "Flash Point (Closed Cup Method)": NaN,
    "Autoignition Temperature (AIGT)": NaN,
    "NFPA Rating (Health)": NaN,
    "NFPA Rating (Fire)": NaN,
    "NFPA Rating (Safety)": NaN,
    "Class": "Paraffinic Hydrocarbons",
    "Subclass": "n-Alkanes",
    "SMILES": "CCCCCCCCCCCCCCC"
}