{
    "ID": "1505",
    "Name": "CHLOROTRIFLUOROMETHANE",
    "Synonyms": "REFRIGERANT-13, TRIFLUOROCHLOROMETHANE",
    "CAS No.": "75-72-9",
    "Formula": "CClF3",
    "Molecular Wt. (WT)": "1.04459E+02",
    "Normal Boiling Point Temp. (TB)": "1.91700E+02 K",
    "Freezing Point Temp. (TF)": "9.20000E+01 K",
    "Triple Point Temp. (TT)": NaN,
    "Triple Point Press. (PT)": NaN,
    "Critical Temperature. (TC)": "3.02000E+02 K",
    "Critical Pressure (PC)": "3.87000E+03 kPa",
    "Critical Volume (VC)": "1.80000E-01 m^3/kg-mol",
    "Critical Compressibility (ZC)": "2.77421E-01",
    "Accentric Factor (ACCF)": "1.98000E-01",
    "Vapor Pressure": {
        "Equation Name": "KDB Correlation Equation",
        "Equation": "ln(Pvp) = A*ln(T) + B/T + C + D*T^2 where Pvp in kPa, T in K",
        "Coefficient A": "-4.373781E+00",
        "Coefficient B": "-2.659873E+03",
        "Coefficient C": "4.109901E+01",
        "Coefficient D": "1.024118E-05",
        "Coefficient E": NaN,
        "Coefficient F": NaN,
        "Coefficient G": NaN,
        "T range, from": "92.15 K",
        "T range, to": "302.00 K"
    },
    "Heat Capacity (Ideal Gas)": {
        "Equation Name": "Polynomial Equation",
        "Equation": "Cp = A + B*T + C*T^2 + D*T^3 + E*T^4  where Cp in kJ/kg-mol , T in K",
        "Coefficient A": "2.281000E+01",
        "Coefficient B": "1.911000E-01",
        "Coefficient C": "-1.576000E-04",
        "Coefficient D": "4.459E-08",
        "Coefficient E": "0",
        "Coefficient F": NaN,
        "Coefficient G": NaN,
        "T range, from": NaN,
        "T range, to": NaN
    },
    "Heat Capacity (Liquid)": NaN,
    "Viscosity (Gas, Low P)": NaN,
    "Viscosity (Liquid)": NaN,
    "Themal Conductivity (Gas, Low P)": NaN,
    "Themal Conductivity (Liquid)": NaN,
    "Surface Tension": NaN,
    "Partial Molar Volume (VOLP)": NaN,
    "Solubility Parameters (SOLP)": "4.479607E+03 (J/cm^3)^0.5",
    "SRK accentric factor (WSRK)": "1.747000E-01",
    "COSTALD Characteristic Volume (VSTAR)": "1.807000E-01 m^3/kg-mol",
    "Rackett parameter (ZRA)": "2.771000E-01",
    "Aniline Point (ANP)": NaN,
    "H(formation,ideal gas)at 25 C": "-6.950000E+05 kJ/kg-mol",
    "G(formation,ideal gas) at 25 C": "-6.544000E+05 kJ/kg-mol",
    "Heat of Combustion, Gross form (HCB1)": NaN,
    "Heat of Combustion, Net form (HCB2)": NaN,
    "Van der Waals Volume (VDWV)": NaN,
    "Van der Waals Area (VDWA)": NaN,
    "UNIQUAC Ri Parameter (RI)": NaN,
    "UNIQUAC Qi Parameter (QI)": NaN,
    "Dipole Moment (DM)": "5.000000E-01 debye",
    "Radius of Gyration (GYRAD)": NaN,
    "Liquid Density (DENL)": "1.242590E-02 g-mol/cm^3",
    "Temperature of DENL (TDENL)": "2.430000E+02 K",
    "Heat of Vaporizaiton (HVAP)": "1.550600E+04 kJ/kg-mol",
    "Temperature of HVAP (THVAP)": "1.917000E+02 K",
    "Surface Tension (SRF)": "1.700000E+01 dyn/cm",
    "Temperature of SRF (TSRF)": "1.999000E+02 K",
    "Dielectric Constant (DIEL)": NaN,
    "Temperature of DIEL (TDIEL)": NaN,
    "Refractive Index (RFI)": NaN,
    "Temperature of RFI (TRFI)": NaN,
    "Lower Flammability Limit(FLL)": NaN,
    "Upper Flammability Limit(FLU)": NaN,
    "Flash Point (Open Cup Method)": NaN,
    "Flash Point (Closed Cup Method)": NaN,
    "Autoignition Temperature (AIGT)": NaN,
    "NFPA Rating (Health)": NaN,
    "NFPA Rating (Fire)": NaN,
    "NFPA Rating (Safety)": NaN,
    "Class": "Halogenated Derivatives",
    "Subclass": "Halogenated Paraffins",
    "SMILES": "C(F)(F)(F)Cl"
}