{
    "ID": "1506",
    "Name": "DICHLORODIFLUOROMETHANE",
    "Synonyms": "REFRIGERANT-12, ARCTON 6",
    "CAS No.": "75-71-8",
    "Formula": "CCl2F2",
    "Molecular Wt. (WT)": "1.20914E+02",
    "Normal Boiling Point Temp. (TB)": "2.43300E+02 K",
    "Freezing Point Temp. (TF)": "1.15000E+02 K",
    "Triple Point Temp. (TT)": NaN,
    "Triple Point Press. (PT)": NaN,
    "Critical Temperature. (TC)": "3.84950E+02 K",
    "Critical Pressure (PC)": "4.13600E+03 kPa",
    "Critical Volume (VC)": "2.17000E-01 m^3/kg-mol",
    "Critical Compressibility (ZC)": "2.80414E-01",
    "Accentric Factor (ACCF)": "2.04000E-01",
    "Vapor Pressure": {
        "Equation Name": "KDB Correlation Equation",
        "Equation": "ln(Pvp) = A*ln(T) + B/T + C + D*T^2 where Pvp in kPa, T in K",
        "Coefficient A": "-1.258360E+01",
        "Coefficient B": "-4.849719E+03",
        "Coefficient C": "9.226430E+01",
        "Coefficient D": "2.429599E-05",
        "Coefficient E": NaN,
        "Coefficient F": NaN,
        "Coefficient G": NaN,
        "T range, from": "115.15 K",
        "T range, to": "384.95 K"
    },
    "Heat Capacity (Ideal Gas)": {
        "Equation Name": "Polynomial Equation",
        "Equation": "Cp = A + B*T + C*T^2 + D*T^3 + E*T^4  where Cp in kJ/kg-mol , T in K",
        "Coefficient A": "3.160000E+01",
        "Coefficient B": "1.782000E-01",
        "Coefficient C": "-1.509000E-04",
        "Coefficient D": "4.342E-08",
        "Coefficient E": "0",
        "Coefficient F": NaN,
        "Coefficient G": NaN,
        "T range, from": NaN,
        "T range, to": NaN
    },
    "Heat Capacity (Liquid)": NaN,
    "Viscosity (Gas, Low P)": NaN,
    "Viscosity (Liquid)": NaN,
    "Themal Conductivity (Gas, Low P)": NaN,
    "Themal Conductivity (Liquid)": NaN,
    "Surface Tension": NaN,
    "Partial Molar Volume (VOLP)": NaN,
    "Solubility Parameters (SOLP)": "1.243653E+04 (J/cm^3)^0.5",
    "SRK accentric factor (WSRK)": "1.699000E-01",
    "COSTALD Characteristic Volume (VSTAR)": "2.147000E-01 m^3/kg-mol",
    "Rackett parameter (ZRA)": "2.757000E-01",
    "Aniline Point (ANP)": NaN,
    "H(formation,ideal gas)at 25 C": "-4.815000E+05 kJ/kg-mol",
    "G(formation,ideal gas) at 25 C": "-4.425000E+05 kJ/kg-mol",
    "Heat of Combustion, Gross form (HCB1)": NaN,
    "Heat of Combustion, Net form (HCB2)": NaN,
    "Van der Waals Volume (VDWV)": NaN,
    "Van der Waals Area (VDWA)": NaN,
    "UNIQUAC Ri Parameter (RI)": NaN,
    "UNIQUAC Qi Parameter (QI)": NaN,
    "Dipole Moment (DM)": "5.000000E-01 debye",
    "Radius of Gyration (GYRAD)": NaN,
    "Liquid Density (DENL)": "1.447312E-02 g-mol/cm^3",
    "Temperature of DENL (TDENL)": "1.580000E+02 K",
    "Heat of Vaporizaiton (HVAP)": "1.996600E+04 kJ/kg-mol",
    "Temperature of HVAP (THVAP)": "2.433000E+02 K",
    "Surface Tension (SRF)": "1.180000E+01 dyn/cm",
    "Temperature of SRF (TSRF)": "2.776000E+02 K",
    "Dielectric Constant (DIEL)": NaN,
    "Temperature of DIEL (TDIEL)": NaN,
    "Refractive Index (RFI)": NaN,
    "Temperature of RFI (TRFI)": NaN,
    "Lower Flammability Limit(FLL)": NaN,
    "Upper Flammability Limit(FLU)": NaN,
    "Flash Point (Open Cup Method)": NaN,
    "Flash Point (Closed Cup Method)": NaN,
    "Autoignition Temperature (AIGT)": NaN,
    "NFPA Rating (Health)": NaN,
    "NFPA Rating (Fire)": NaN,
    "NFPA Rating (Safety)": NaN,
    "Class": "Halogenated Derivatives",
    "Subclass": "Halogenated Paraffins",
    "SMILES": "C(F)(F)(Cl)Cl"
}