{
    "ID": "1507",
    "Name": "TRICHLOROFLUOROMETHANE",
    "Synonyms": "REFRIGERANT-11, ARCTON 9",
    "CAS No.": "75-69-4",
    "Formula": "CCl3F",
    "Molecular Wt. (WT)": "1.37368E+02",
    "Normal Boiling Point Temp. (TB)": "2.96900E+02 K",
    "Freezing Point Temp. (TF)": "1.62040E+02 K",
    "Triple Point Temp. (TT)": NaN,
    "Triple Point Press. (PT)": NaN,
    "Critical Temperature. (TC)": "4.71200E+02 K",
    "Critical Pressure (PC)": "4.41000E+03 kPa",
    "Critical Volume (VC)": "2.48000E-01 m^3/kg-mol",
    "Critical Compressibility (ZC)": "2.79157E-01",
    "Accentric Factor (ACCF)": "1.89000E-01",
    "Vapor Pressure": {
        "Equation Name": "KDB Correlation Equation",
        "Equation": "ln(Pvp) = A*ln(T) + B/T + C + D*T^2 where Pvp in kPa, T in K",
        "Coefficient A": "-9.739707E+00",
        "Coefficient B": "-5.397950E+03",
        "Coefficient C": "7.724088E+01",
        "Coefficient D": "1.157580E-05",
        "Coefficient E": NaN,
        "Coefficient F": NaN,
        "Coefficient G": NaN,
        "T range, from": "162.04 K",
        "T range, to": "471.20 K"
    },
    "Heat Capacity (Ideal Gas)": {
        "Equation Name": "Polynomial Equation",
        "Equation": "Cp = A + B*T + C*T^2 + D*T^3 + E*T^4  where Cp in kJ/kg-mol , T in K",
        "Coefficient A": "4.098000E+01",
        "Coefficient B": "1.668000E-01",
        "Coefficient C": "-1.416000E-04",
        "Coefficient D": "4.146E-08",
        "Coefficient E": "0",
        "Coefficient F": NaN,
        "Coefficient G": NaN,
        "T range, from": NaN,
        "T range, to": NaN
    },
    "Heat Capacity (Liquid)": NaN,
    "Viscosity (Gas, Low P)": NaN,
    "Viscosity (Liquid)": NaN,
    "Themal Conductivity (Gas, Low P)": NaN,
    "Themal Conductivity (Liquid)": NaN,
    "Surface Tension": NaN,
    "Partial Molar Volume (VOLP)": NaN,
    "Solubility Parameters (SOLP)": "1.561726E+04 (J/cm^3)^0.5",
    "SRK accentric factor (WSRK)": "1.871000E-01",
    "COSTALD Characteristic Volume (VSTAR)": "2.460000E-01 m^3/kg-mol",
    "Rackett parameter (ZRA)": "2.745000E-01",
    "Aniline Point (ANP)": NaN,
    "H(formation,ideal gas)at 25 C": "-2.847000E+05 kJ/kg-mol",
    "G(formation,ideal gas) at 25 C": "-2.455000E+05 kJ/kg-mol",
    "Heat of Combustion, Gross form (HCB1)": NaN,
    "Heat of Combustion, Net form (HCB2)": NaN,
    "Van der Waals Volume (VDWV)": NaN,
    "Van der Waals Area (VDWA)": NaN,
    "UNIQUAC Ri Parameter (RI)": NaN,
    "UNIQUAC Qi Parameter (QI)": NaN,
    "Dipole Moment (DM)": "5.000000E-01 debye",
    "Radius of Gyration (GYRAD)": NaN,
    "Liquid Density (DENL)": "1.087586E-02 g-mol/cm^3",
    "Temperature of DENL (TDENL)": "2.900000E+02 K",
    "Heat of Vaporizaiton (HVAP)": "2.476900E+04 kJ/kg-mol",
    "Temperature of HVAP (THVAP)": "2.971000E+02 K",
    "Surface Tension (SRF)": "2.100000E+01 dyn/cm",
    "Temperature of SRF (TSRF)": "2.776000E+02 K",
    "Dielectric Constant (DIEL)": NaN,
    "Temperature of DIEL (TDIEL)": NaN,
    "Refractive Index (RFI)": NaN,
    "Temperature of RFI (TRFI)": NaN,
    "Lower Flammability Limit(FLL)": NaN,
    "Upper Flammability Limit(FLU)": NaN,
    "Flash Point (Open Cup Method)": NaN,
    "Flash Point (Closed Cup Method)": NaN,
    "Autoignition Temperature (AIGT)": NaN,
    "NFPA Rating (Health)": NaN,
    "NFPA Rating (Fire)": NaN,
    "NFPA Rating (Safety)": NaN,
    "Class": "Halogenated Derivatives",
    "Subclass": "Halogenated Paraffins",
    "SMILES": "C(F)(Cl)(Cl)Cl"
}