{
    "ID": "1508",
    "Name": "CARBON TETRACHLORIDE",
    "Synonyms": "REFRIGERANT-10, TETRACHLOROMETHANE, BENZINOFORM",
    "CAS No.": "56-23-5",
    "Formula": "CCl4",
    "Molecular Wt. (WT)": "1.53823E+02",
    "Normal Boiling Point Temp. (TB)": "3.49900E+02 K",
    "Freezing Point Temp. (TF)": "2.50000E+02 K",
    "Triple Point Temp. (TT)": NaN,
    "Triple Point Press. (PT)": NaN,
    "Critical Temperature. (TC)": "5.56600E+02 K",
    "Critical Pressure (PC)": "4.51600E+03 kPa",
    "Critical Volume (VC)": "2.76000E-01 m^3/kg-mol",
    "Critical Compressibility (ZC)": "2.69329E-01",
    "Accentric Factor (ACCF)": "1.93000E-01",
    "Vapor Pressure": {
        "Equation Name": "KDB Correlation Equation",
        "Equation": "ln(Pvp) = A*ln(T) + B/T + C + D*T^2 where Pvp in kPa, T in K",
        "Coefficient A": "-9.113968E+00",
        "Coefficient B": "-6.263383E+03",
        "Coefficient C": "7.499482E+01",
        "Coefficient D": "7.411446E-06",
        "Coefficient E": NaN,
        "Coefficient F": NaN,
        "Coefficient G": NaN,
        "T range, from": "250.00 K",
        "T range, to": "556.35 K"
    },
    "Heat Capacity (Ideal Gas)": {
        "Equation Name": "Polynomial Equation",
        "Equation": "Cp = A + B*T + C*T^2 + D*T^3 + E*T^4  where Cp in kJ/kg-mol , T in K",
        "Coefficient A": "4.072000E+01",
        "Coefficient B": "2.049000E-01",
        "Coefficient C": "-2.270000E-04",
        "Coefficient D": "8.843001E-08",
        "Coefficient E": "0",
        "Coefficient F": NaN,
        "Coefficient G": NaN,
        "T range, from": NaN,
        "T range, to": NaN
    },
    "Heat Capacity (Liquid)": {
        "Equation Name": "Polynomial Equation",
        "Equation": "Cp = A + B*T + C*T^2 + D*T^3  where T in K and Cp in kJ/kg-mol.K",
        "Coefficient A": "-7.903352",
        "Coefficient B": "1.324519",
        "Coefficient C": "-4.530912E-03",
        "Coefficient D": "5.541357E-06",
        "Coefficient E": NaN,
        "Coefficient F": NaN,
        "Coefficient G": NaN,
        "T range, from": "250.25 K",
        "T range, to": "533.15 K"
    },
    "Viscosity (Gas, Low P)": {
        "Equation Name": "Polynomial Equation",
        "Equation": "VISG = A + B*T + C*T^2 where T in K and VISG in cP",
        "Coefficient A": ".0005698",
        "Coefficient B": "3.273E-05",
        "Coefficient C": "-4.028E-09",
        "Coefficient D": "0",
        "Coefficient E": NaN,
        "Coefficient F": NaN,
        "Coefficient G": NaN,
        "T range, from": "273.15 K",
        "T range, to": "1273.15 K"
    },
    "Viscosity (Liquid)": {
        "Equation Name": "Quasipolynomial Equation",
        "Equation": "ln (VISL) = A + B/T + C*T + D*T^2  where T in K and VISL in cP.",
        "Coefficient A": "-13.03",
        "Coefficient B": "2290",
        "Coefficient C": ".02339",
        "Coefficient D": "-2.011E-05",
        "Coefficient E": NaN,
        "Coefficient F": NaN,
        "Coefficient G": NaN,
        "T range, from": "253.15 K",
        "T range, to": "556.15 K"
    },
    "Themal Conductivity (Gas, Low P)": {
        "Equation Name": "Polynomial Equation",
        "Equation": "THG = A + B*T + C*T^2 + D*T^3  where T in K and THG in W/m.K",
        "Coefficient A": "-.0001742",
        "Coefficient B": "1.703E-05",
        "Coefficient C": "2.561E-08",
        "Coefficient D": "-1.493E-11",
        "Coefficient E": NaN,
        "Coefficient F": NaN,
        "Coefficient G": NaN,
        "T range, from": "300 K",
        "T range, to": "1270 K"
    },
    "Themal Conductivity (Liquid)": {
        "Equation Name": "Polynomial Equation",
        "Equation": "THL = A + B*T + C*T^2 + D*T^3  where T in K and THL in W/m.K",
        "Coefficient A": ".1608",
        "Coefficient B": "-.0001903",
        "Coefficient C": "-1.005E-08",
        "Coefficient D": "0",
        "Coefficient E": NaN,
        "Coefficient F": NaN,
        "Coefficient G": NaN,
        "T range, from": "250 K",
        "T range, to": "497 K"
    },
    "Surface Tension": NaN,
    "Partial Molar Volume (VOLP)": "9.709000E-02 m^3/kg-mol",
    "Solubility Parameters (SOLP)": NaN,
    "SRK accentric factor (WSRK)": "1.875000E-01",
    "COSTALD Characteristic Volume (VSTAR)": "2.754000E-01 m^3/kg-mol",
    "Rackett parameter (ZRA)": "2.722000E-01",
    "Aniline Point (ANP)": NaN,
    "H(formation,ideal gas)at 25 C": "-1.005000E+05 kJ/kg-mol",
    "G(formation,ideal gas) at 25 C": "-5.828000E+04 kJ/kg-mol",
    "Heat of Combustion, Gross form (HCB1)": NaN,
    "Heat of Combustion, Net form (HCB2)": NaN,
    "Van der Waals Volume (VDWV)": NaN,
    "Van der Waals Area (VDWA)": NaN,
    "UNIQUAC Ri Parameter (RI)": "3.390000E+00",
    "UNIQUAC Qi Parameter (QI)": "2.910000E+00",
    "Dipole Moment (DM)": "0.000000E+00 debye",
    "Radius of Gyration (GYRAD)": "3.458000E+00",
    "Liquid Density (DENL)": "1.029755E-02 g-mol/cm^3",
    "Temperature of DENL (TDENL)": "2.980000E+02 K",
    "Heat of Vaporizaiton (HVAP)": "2.999900E+04 kJ/kg-mol",
    "Temperature of HVAP (THVAP)": "3.498000E+02 K",
    "Surface Tension (SRF)": "2.643000E+01 dyn/cm",
    "Temperature of SRF (TSRF)": "2.982000E+02 K",
    "Dielectric Constant (DIEL)": NaN,
    "Temperature of DIEL (TDIEL)": NaN,
    "Refractive Index (RFI)": NaN,
    "Temperature of RFI (TRFI)": NaN,
    "Lower Flammability Limit(FLL)": NaN,
    "Upper Flammability Limit(FLU)": NaN,
    "Flash Point (Open Cup Method)": NaN,
    "Flash Point (Closed Cup Method)": NaN,
    "Autoignition Temperature (AIGT)": NaN,
    "NFPA Rating (Health)": 4.0,
    "NFPA Rating (Fire)": NaN,
    "NFPA Rating (Safety)": NaN,
    "Class": "Halogenated Derivatives",
    "Subclass": "Halogenated Paraffins",
    "SMILES": "C(Cl)(Cl)(Cl)Cl"
}