{
    "ID": "1513",
    "Name": "TETRAFLUOROMETHANE",
    "Synonyms": "CARBON TETRAFLUORIDE, REFRIGERANT-14, FREON 14",
    "CAS No.": "75-73-0",
    "Formula": "CF4",
    "Molecular Wt. (WT)": "8.80046E+01",
    "Normal Boiling Point Temp. (TB)": "1.45130E+02 K",
    "Freezing Point Temp. (TF)": "8.95600E+01 K",
    "Triple Point Temp. (TT)": NaN,
    "Triple Point Press. (PT)": NaN,
    "Critical Temperature. (TC)": "2.27600E+02 K",
    "Critical Pressure (PC)": "3.74000E+03 kPa",
    "Critical Volume (VC)": "1.40000E-01 m^3/kg-mol",
    "Critical Compressibility (ZC)": "2.76688E-01",
    "Accentric Factor (ACCF)": "1.77000E-01",
    "Vapor Pressure": {
        "Equation Name": "KDB Correlation Equation",
        "Equation": "ln(Pvp) = A*ln(T) + B/T + C + D*T^2 where Pvp in kPa, T in K",
        "Coefficient A": "-7.754053E+00",
        "Coefficient B": "-2.357777E+03",
        "Coefficient C": "5.862970E+01",
        "Coefficient D": "3.874598E-05",
        "Coefficient E": NaN,
        "Coefficient F": NaN,
        "Coefficient G": NaN,
        "T range, from": "89.56 K",
        "T range, to": "227.50 K"
    },
    "Heat Capacity (Ideal Gas)": {
        "Equation Name": "Polynomial Equation",
        "Equation": "Cp = A + B*T + C*T^2 + D*T^3 + E*T^4  where Cp in kJ/kg-mol , T in K",
        "Coefficient A": "1.398000E+01",
        "Coefficient B": "2.026000E-01",
        "Coefficient C": "-1.625000E-04",
        "Coefficient D": "4.513E-08",
        "Coefficient E": "0",
        "Coefficient F": NaN,
        "Coefficient G": NaN,
        "T range, from": NaN,
        "T range, to": NaN
    },
    "Heat Capacity (Liquid)": NaN,
    "Viscosity (Gas, Low P)": NaN,
    "Viscosity (Liquid)": NaN,
    "Themal Conductivity (Gas, Low P)": NaN,
    "Themal Conductivity (Liquid)": NaN,
    "Surface Tension": NaN,
    "Partial Molar Volume (VOLP)": "9.709000E-02 m^3/kg-mol",
    "Solubility Parameters (SOLP)": NaN,
    "SRK accentric factor (WSRK)": NaN,
    "COSTALD Characteristic Volume (VSTAR)": NaN,
    "Rackett parameter (ZRA)": NaN,
    "Aniline Point (ANP)": NaN,
    "H(formation,ideal gas)at 25 C": "-9.337000E+05 kJ/kg-mol",
    "G(formation,ideal gas) at 25 C": "-8.890001E+05 kJ/kg-mol",
    "Heat of Combustion, Gross form (HCB1)": NaN,
    "Heat of Combustion, Net form (HCB2)": NaN,
    "Van der Waals Volume (VDWV)": NaN,
    "Van der Waals Area (VDWA)": NaN,
    "UNIQUAC Ri Parameter (RI)": "3.390000E+00",
    "UNIQUAC Qi Parameter (QI)": "2.910000E+00",
    "Dipole Moment (DM)": "0.000000E+00 debye",
    "Radius of Gyration (GYRAD)": NaN,
    "Liquid Density (DENL)": "1.511285E-02 g-mol/cm^3",
    "Temperature of DENL (TDENL)": "1.930000E+02 K",
    "Heat of Vaporizaiton (HVAP)": "1.196600E+04 kJ/kg-mol",
    "Temperature of HVAP (THVAP)": "1.452000E+02 K",
    "Surface Tension (SRF)": "6.400000E+00 dyn/cm",
    "Temperature of SRF (TSRF)": "1.932000E+02 K",
    "Dielectric Constant (DIEL)": NaN,
    "Temperature of DIEL (TDIEL)": NaN,
    "Refractive Index (RFI)": NaN,
    "Temperature of RFI (TRFI)": NaN,
    "Lower Flammability Limit(FLL)": NaN,
    "Upper Flammability Limit(FLU)": NaN,
    "Flash Point (Open Cup Method)": NaN,
    "Flash Point (Closed Cup Method)": NaN,
    "Autoignition Temperature (AIGT)": NaN,
    "NFPA Rating (Health)": NaN,
    "NFPA Rating (Fire)": NaN,
    "NFPA Rating (Safety)": NaN,
    "Class": "Halogenated Derivatives",
    "Subclass": "Halogenated Paraffins",
    "SMILES": "C(F)(F)(F)F"
}