{
    "ID": "1515",
    "Name": "CHLORODIFLUOROMETHANE",
    "Synonyms": "DIFLUOROCHLOROMETHANE, REFRIGERANT-22",
    "CAS No.": "75-45-6",
    "Formula": "CHClF2",
    "Molecular Wt. (WT)": "8.64687E+01",
    "Normal Boiling Point Temp. (TB)": "2.32400E+02 K",
    "Freezing Point Temp. (TF)": "1.15730E+02 K",
    "Triple Point Temp. (TT)": NaN,
    "Triple Point Press. (PT)": NaN,
    "Critical Temperature. (TC)": "3.69300E+02 K",
    "Critical Pressure (PC)": "4.99000E+03 kPa",
    "Critical Volume (VC)": "1.69000E-01 m^3/kg-mol",
    "Critical Compressibility (ZC)": "2.74645E-01",
    "Accentric Factor (ACCF)": "2.21000E-01",
    "Vapor Pressure": {
        "Equation Name": "KDB Correlation Equation",
        "Equation": "ln(Pvp) = A*ln(T) + B/T + C + D*T^2 where Pvp in kPa, T in K",
        "Coefficient A": "-1.228371E+01",
        "Coefficient B": "-4.768454E+03",
        "Coefficient C": "9.078150E+01",
        "Coefficient D": "2.404932E-05",
        "Coefficient E": NaN,
        "Coefficient F": NaN,
        "Coefficient G": NaN,
        "T range, from": "115.73 K",
        "T range, to": "369.30 K"
    },
    "Heat Capacity (Ideal Gas)": {
        "Equation Name": "Polynomial Equation",
        "Equation": "Cp = A + B*T + C*T^2 + D*T^3 + E*T^4  where Cp in kJ/kg-mol , T in K",
        "Coefficient A": "1.730000E+01",
        "Coefficient B": "1.618000E-01",
        "Coefficient C": "-1.170000E-04",
        "Coefficient D": "3.058E-08",
        "Coefficient E": "0",
        "Coefficient F": NaN,
        "Coefficient G": NaN,
        "T range, from": NaN,
        "T range, to": NaN
    },
    "Heat Capacity (Liquid)": NaN,
    "Viscosity (Gas, Low P)": NaN,
    "Viscosity (Liquid)": NaN,
    "Themal Conductivity (Gas, Low P)": NaN,
    "Themal Conductivity (Liquid)": NaN,
    "Surface Tension": NaN,
    "Partial Molar Volume (VOLP)": "5.800000E-02 m^3/kg-mol",
    "Solubility Parameters (SOLP)": "1.353905E+04 (J/cm^3)^0.5",
    "SRK accentric factor (WSRK)": "2.215000E-01",
    "COSTALD Characteristic Volume (VSTAR)": "1.637000E-01 m^3/kg-mol",
    "Rackett parameter (ZRA)": "2.663000E-01",
    "Aniline Point (ANP)": NaN,
    "H(formation,ideal gas)at 25 C": "-5.020000E+05 kJ/kg-mol",
    "G(formation,ideal gas) at 25 C": "-4.709000E+05 kJ/kg-mol",
    "Heat of Combustion, Gross form (HCB1)": NaN,
    "Heat of Combustion, Net form (HCB2)": NaN,
    "Van der Waals Volume (VDWV)": NaN,
    "Van der Waals Area (VDWA)": NaN,
    "UNIQUAC Ri Parameter (RI)": "1.967000E+00",
    "UNIQUAC Qi Parameter (QI)": "1.828000E+00",
    "Dipole Moment (DM)": "1.400000E+00 debye",
    "Radius of Gyration (GYRAD)": NaN,
    "Liquid Density (DENL)": "1.422480E-02 g-mol/cm^3",
    "Temperature of DENL (TDENL)": "2.890000E+02 K",
    "Heat of Vaporizaiton (HVAP)": "2.019200E+04 kJ/kg-mol",
    "Temperature of HVAP (THVAP)": "2.324000E+02 K",
    "Surface Tension (SRF)": "1.850000E+01 dyn/cm",
    "Temperature of SRF (TSRF)": "2.332000E+02 K",
    "Dielectric Constant (DIEL)": NaN,
    "Temperature of DIEL (TDIEL)": NaN,
    "Refractive Index (RFI)": NaN,
    "Temperature of RFI (TRFI)": NaN,
    "Lower Flammability Limit(FLL)": NaN,
    "Upper Flammability Limit(FLU)": NaN,
    "Flash Point (Open Cup Method)": NaN,
    "Flash Point (Closed Cup Method)": NaN,
    "Autoignition Temperature (AIGT)": NaN,
    "NFPA Rating (Health)": NaN,
    "NFPA Rating (Fire)": NaN,
    "NFPA Rating (Safety)": NaN,
    "Class": "Halogenated Derivatives",
    "Subclass": "Halogenated Paraffins",
    "SMILES": "C(F)(F)Cl"
}