{
    "ID": "1517",
    "Name": "DICHLOROFLUOROMETHANE",
    "Synonyms": "REFRIGERANT-21, ARCTON 7",
    "CAS No.": "75-43-4",
    "Formula": "CHCl2F",
    "Molecular Wt. (WT)": "1.02923E+02",
    "Normal Boiling Point Temp. (TB)": "2.82100E+02 K",
    "Freezing Point Temp. (TF)": "1.38000E+02 K",
    "Triple Point Temp. (TT)": NaN,
    "Triple Point Press. (PT)": NaN,
    "Critical Temperature. (TC)": "4.51580E+02 K",
    "Critical Pressure (PC)": "5.18000E+03 kPa",
    "Critical Volume (VC)": "1.96000E-01 m^3/kg-mol",
    "Critical Compressibility (ZC)": "2.70405E-01",
    "Accentric Factor (ACCF)": "2.10000E-01",
    "Vapor Pressure": {
        "Equation Name": "KDB Correlation Equation",
        "Equation": "ln(Pvp) = A*ln(T) + B/T + C + D*T^2 where Pvp in kPa, T in K",
        "Coefficient A": "4.151519E-01",
        "Coefficient B": "-3.316241E+03",
        "Coefficient C": "1.437074E+01",
        "Coefficient D": "-5.147195E-06",
        "Coefficient E": NaN,
        "Coefficient F": NaN,
        "Coefficient G": NaN,
        "T range, from": "138.15 K",
        "T range, to": "451.58 K"
    },
    "Heat Capacity (Ideal Gas)": {
        "Equation Name": "Polynomial Equation",
        "Equation": "Cp = A + B*T + C*T^2 + D*T^3 + E*T^4  where Cp in kJ/kg-mol , T in K",
        "Coefficient A": "2.366000E+01",
        "Coefficient B": "1.581000E-01",
        "Coefficient C": "-1.200000E-04",
        "Coefficient D": "3.264E-08",
        "Coefficient E": "0",
        "Coefficient F": NaN,
        "Coefficient G": NaN,
        "T range, from": NaN,
        "T range, to": NaN
    },
    "Heat Capacity (Liquid)": NaN,
    "Viscosity (Gas, Low P)": NaN,
    "Viscosity (Liquid)": NaN,
    "Themal Conductivity (Gas, Low P)": NaN,
    "Themal Conductivity (Liquid)": NaN,
    "Surface Tension": NaN,
    "Partial Molar Volume (VOLP)": NaN,
    "Solubility Parameters (SOLP)": "1.620841E+04 (J/cm^3)^0.5",
    "SRK accentric factor (WSRK)": "2.102000E-01",
    "COSTALD Characteristic Volume (VSTAR)": "1.958000E-01 m^3/kg-mol",
    "Rackett parameter (ZRA)": "2.705000E-01",
    "Aniline Point (ANP)": NaN,
    "H(formation,ideal gas)at 25 C": "-2.989000E+05 kJ/kg-mol",
    "G(formation,ideal gas) at 25 C": "-2.684000E+05 kJ/kg-mol",
    "Heat of Combustion, Gross form (HCB1)": NaN,
    "Heat of Combustion, Net form (HCB2)": NaN,
    "Van der Waals Volume (VDWV)": NaN,
    "Van der Waals Area (VDWA)": NaN,
    "UNIQUAC Ri Parameter (RI)": NaN,
    "UNIQUAC Qi Parameter (QI)": NaN,
    "Dipole Moment (DM)": "1.300000E+00 debye",
    "Radius of Gyration (GYRAD)": NaN,
    "Liquid Density (DENL)": "1.340804E-02 g-mol/cm^3",
    "Temperature of DENL (TDENL)": "2.820000E+02 K",
    "Heat of Vaporizaiton (HVAP)": "2.493700E+04 kJ/kg-mol",
    "Temperature of HVAP (THVAP)": "2.821000E+02 K",
    "Surface Tension (SRF)": "2.360000E+01 dyn/cm",
    "Temperature of SRF (TSRF)": "2.732000E+02 K",
    "Dielectric Constant (DIEL)": NaN,
    "Temperature of DIEL (TDIEL)": NaN,
    "Refractive Index (RFI)": NaN,
    "Temperature of RFI (TRFI)": NaN,
    "Lower Flammability Limit(FLL)": NaN,
    "Upper Flammability Limit(FLU)": NaN,
    "Flash Point (Open Cup Method)": NaN,
    "Flash Point (Closed Cup Method)": NaN,
    "Autoignition Temperature (AIGT)": NaN,
    "NFPA Rating (Health)": NaN,
    "NFPA Rating (Fire)": NaN,
    "NFPA Rating (Safety)": NaN,
    "Class": "Halogenated Derivatives",
    "Subclass": "Halogenated Paraffins",
    "SMILES": "C(F)(Cl)Cl"
}