{
    "ID": "1518",
    "Name": "CHLOROFORM",
    "Synonyms": "TRICHLOROMETHANE, FREON 20, FORMYL TRICHLORIDE",
    "CAS No.": "67-66-3",
    "Formula": "CHCl3",
    "Molecular Wt. (WT)": "1.19378E+02",
    "Normal Boiling Point Temp. (TB)": "3.34320E+02 K",
    "Freezing Point Temp. (TF)": "2.09500E+02 K",
    "Triple Point Temp. (TT)": NaN,
    "Triple Point Press. (PT)": NaN,
    "Critical Temperature. (TC)": "5.36400E+02 K",
    "Critical Pressure (PC)": "5.47000E+03 kPa",
    "Critical Volume (VC)": "2.39000E-01 m^3/kg-mol",
    "Critical Compressibility (ZC)": "2.93130E-01",
    "Accentric Factor (ACCF)": "2.18000E-01",
    "Vapor Pressure": {
        "Equation Name": "KDB Correlation Equation",
        "Equation": "ln(Pvp) = A*ln(T) + B/T + C + D*T^2 where Pvp in kPa, T in K",
        "Coefficient A": "-1.007089E+01",
        "Coefficient B": "-6.351140E+03",
        "Coefficient C": "8.114393E+01",
        "Coefficient D": "9.127608E-06",
        "Coefficient E": NaN,
        "Coefficient F": NaN,
        "Coefficient G": NaN,
        "T range, from": "209.63 K",
        "T range, to": "536.40 K"
    },
    "Heat Capacity (Ideal Gas)": {
        "Equation Name": "Polynomial Equation",
        "Equation": "Cp = A + B*T + C*T^2 + D*T^3 + E*T^4  where Cp in kJ/kg-mol , T in K",
        "Coefficient A": "2.400000E+01",
        "Coefficient B": "1.893000E-01",
        "Coefficient C": "-1.841000E-04",
        "Coefficient D": "6.657E-08",
        "Coefficient E": "0",
        "Coefficient F": NaN,
        "Coefficient G": NaN,
        "T range, from": NaN,
        "T range, to": NaN
    },
    "Heat Capacity (Liquid)": {
        "Equation Name": "Polynomial Equation",
        "Equation": "Cp = A + B*T + C*T^2 + D*T^3  where T in K and Cp in kJ/kg-mol.K",
        "Coefficient A": "-45.72214",
        "Coefficient B": "1.572853",
        "Coefficient C": "-5.314437E-03",
        "Coefficient D": "6.193516E-06",
        "Coefficient E": NaN,
        "Coefficient F": NaN,
        "Coefficient G": NaN,
        "T range, from": "209.95 K",
        "T range, to": "523.15 K"
    },
    "Viscosity (Gas, Low P)": {
        "Equation Name": "Polynomial Equation",
        "Equation": "VISG = A + B*T + C*T^2 where T in K and VISG in cP",
        "Coefficient A": "-.0006688",
        "Coefficient B": "3.726E-05",
        "Coefficient C": "-5.087E-09",
        "Coefficient D": "0",
        "Coefficient E": NaN,
        "Coefficient F": NaN,
        "Coefficient G": NaN,
        "T range, from": "273.15 K",
        "T range, to": "1273.15 K"
    },
    "Viscosity (Liquid)": {
        "Equation Name": "Quasipolynomial Equation",
        "Equation": "ln (VISL) = A + B/T + C*T + D*T^2  where T in K and VISL in cP.",
        "Coefficient A": "-4.172",
        "Coefficient B": "915.3",
        "Coefficient C": ".0027",
        "Coefficient D": "-4.108E-06",
        "Coefficient E": NaN,
        "Coefficient F": NaN,
        "Coefficient G": NaN,
        "T range, from": "210.15 K",
        "T range, to": "536.15 K"
    },
    "Themal Conductivity (Gas, Low P)": {
        "Equation Name": "Polynomial Equation",
        "Equation": "THG = A + B*T + C*T^2 + D*T^3  where T in K and THG in W/m.K",
        "Coefficient A": "-.0024",
        "Coefficient B": "2.634E-05",
        "Coefficient C": "2.472E-08",
        "Coefficient D": "-1.404E-11",
        "Coefficient E": NaN,
        "Coefficient F": NaN,
        "Coefficient G": NaN,
        "T range, from": "300 K",
        "T range, to": "1270 K"
    },
    "Themal Conductivity (Liquid)": {
        "Equation Name": "Polynomial Equation",
        "Equation": "THL = A + B*T + C*T^2 + D*T^3  where T in K and THL in W/m.K",
        "Coefficient A": ".1634",
        "Coefficient B": "-8.617E-05",
        "Coefficient C": "-2.119E-07",
        "Coefficient D": "0",
        "Coefficient E": NaN,
        "Coefficient F": NaN,
        "Coefficient G": NaN,
        "T range, from": "210 K",
        "T range, to": "510 K"
    },
    "Surface Tension": NaN,
    "Partial Molar Volume (VOLP)": "8.067000E-02 m^3/kg-mol",
    "Solubility Parameters (SOLP)": "1.887981E+04 (J/cm^3)^0.5",
    "SRK accentric factor (WSRK)": "2.181000E-01",
    "COSTALD Characteristic Volume (VSTAR)": "2.245000E-01 m^3/kg-mol",
    "Rackett parameter (ZRA)": "2.750000E-01",
    "Aniline Point (ANP)": NaN,
    "H(formation,ideal gas)at 25 C": "-1.013000E+05 kJ/kg-mol",
    "G(formation,ideal gas) at 25 C": "-6.858000E+04 kJ/kg-mol",
    "Heat of Combustion, Gross form (HCB1)": NaN,
    "Heat of Combustion, Net form (HCB2)": NaN,
    "Van der Waals Volume (VDWV)": NaN,
    "Van der Waals Area (VDWA)": NaN,
    "UNIQUAC Ri Parameter (RI)": "2.870000E+00",
    "UNIQUAC Qi Parameter (QI)": "2.410000E+00",
    "Dipole Moment (DM)": "1.100000E+00 debye",
    "Radius of Gyration (GYRAD)": "3.178000E+00",
    "Liquid Density (DENL)": "1.247300E-02 g-mol/cm^3",
    "Temperature of DENL (TDENL)": "2.930000E+02 K",
    "Heat of Vaporizaiton (HVAP)": "2.970600E+04 kJ/kg-mol",
    "Temperature of HVAP (THVAP)": "3.343000E+02 K",
    "Surface Tension (SRF)": "2.667000E+01 dyn/cm",
    "Temperature of SRF (TSRF)": "2.982000E+02 K",
    "Dielectric Constant (DIEL)": NaN,
    "Temperature of DIEL (TDIEL)": NaN,
    "Refractive Index (RFI)": NaN,
    "Temperature of RFI (TRFI)": NaN,
    "Lower Flammability Limit(FLL)": NaN,
    "Upper Flammability Limit(FLU)": NaN,
    "Flash Point (Open Cup Method)": NaN,
    "Flash Point (Closed Cup Method)": NaN,
    "Autoignition Temperature (AIGT)": NaN,
    "NFPA Rating (Health)": 2.0,
    "NFPA Rating (Fire)": NaN,
    "NFPA Rating (Safety)": NaN,
    "Class": "Halogenated Derivatives",
    "Subclass": "Halogenated Paraffins",
    "SMILES": "C(Cl)(Cl)Cl"
}