{
    "ID": "1526",
    "Name": "DICHLOROMETHANE",
    "Synonyms": "METHYLENE DICHLORIDE, FREON 30",
    "CAS No.": "75-09-2",
    "Formula": "CH2Cl2",
    "Molecular Wt. (WT)": "8.49328E+01",
    "Normal Boiling Point Temp. (TB)": "3.13000E+02 K",
    "Freezing Point Temp. (TF)": "1.78010E+02 K",
    "Triple Point Temp. (TT)": NaN,
    "Triple Point Press. (PT)": NaN,
    "Critical Temperature. (TC)": "5.10000E+02 K",
    "Critical Pressure (PC)": "6.10000E+03 kPa",
    "Critical Volume (VC)": NaN,
    "Critical Compressibility (ZC)": NaN,
    "Accentric Factor (ACCF)": "1.99000E-01",
    "Vapor Pressure": {
        "Equation Name": "KDB Correlation Equation",
        "Equation": "ln(Pvp) = A*ln(T) + B/T + C + D*T^2 where Pvp in kPa, T in K",
        "Coefficient A": "-1.008632E+01",
        "Coefficient B": "-6.030610E+03",
        "Coefficient C": "8.087786E+01",
        "Coefficient D": "9.812512E-06",
        "Coefficient E": NaN,
        "Coefficient F": NaN,
        "Coefficient G": NaN,
        "T range, from": "178.01 K",
        "T range, to": "510.00 K"
    },
    "Heat Capacity (Ideal Gas)": {
        "Equation Name": "Polynomial Equation",
        "Equation": "Cp = A + B*T + C*T^2 + D*T^3 + E*T^4  where Cp in kJ/kg-mol , T in K",
        "Coefficient A": "1.295000E+01",
        "Coefficient B": "1.623000E-01",
        "Coefficient C": "-1.302000E-04",
        "Coefficient D": "4.208E-08",
        "Coefficient E": "0",
        "Coefficient F": NaN,
        "Coefficient G": NaN,
        "T range, from": NaN,
        "T range, to": NaN
    },
    "Heat Capacity (Liquid)": {
        "Equation Name": "Polynomial Equation",
        "Equation": "Cp = A + B*T + C*T^2 + D*T^3  where T in K and Cp in kJ/kg-mol.K",
        "Coefficient A": "3.969358",
        "Coefficient B": "1.069275",
        "Coefficient C": "-4.061752E-03",
        "Coefficient D": "5.319722E-06",
        "Coefficient E": NaN,
        "Coefficient F": NaN,
        "Coefficient G": NaN,
        "T range, from": "176.45 K",
        "T range, to": "503.15 K"
    },
    "Viscosity (Gas, Low P)": {
        "Equation Name": "Polynomial Equation",
        "Equation": "VISG = A + B*T + C*T^2 where T in K and VISG in cP",
        "Coefficient A": "-.0004929",
        "Coefficient B": "3.772E-05",
        "Coefficient C": "-5.39E-09",
        "Coefficient D": "0",
        "Coefficient E": NaN,
        "Coefficient F": NaN,
        "Coefficient G": NaN,
        "T range, from": "273.15 K",
        "T range, to": "1273.15 K"
    },
    "Viscosity (Liquid)": NaN,
    "Themal Conductivity (Gas, Low P)": {
        "Equation Name": "Polynomial Equation",
        "Equation": "THG = A + B*T + C*T^2 + D*T^3  where T in K and THG in W/m.K",
        "Coefficient A": ".001177",
        "Coefficient B": "-4.188E-06",
        "Coefficient C": "9.673001E-08",
        "Coefficient D": "-4.276E-11",
        "Coefficient E": NaN,
        "Coefficient F": NaN,
        "Coefficient G": NaN,
        "T range, from": "300 K",
        "T range, to": "1270 K"
    },
    "Themal Conductivity (Liquid)": NaN,
    "Surface Tension": NaN,
    "Partial Molar Volume (VOLP)": "6.450000E-02 m^3/kg-mol",
    "Solubility Parameters (SOLP)": "1.983914E+04 (J/cm^3)^0.5",
    "SRK accentric factor (WSRK)": "1.959000E-01",
    "COSTALD Characteristic Volume (VSTAR)": "1.767000E-01 m^3/kg-mol",
    "Rackett parameter (ZRA)": "2.618000E-01",
    "Aniline Point (ANP)": NaN,
    "H(formation,ideal gas)at 25 C": "-9.545999E+04 kJ/kg-mol",
    "G(formation,ideal gas) at 25 C": "-6.891000E+04 kJ/kg-mol",
    "Heat of Combustion, Gross form (HCB1)": NaN,
    "Heat of Combustion, Net form (HCB2)": NaN,
    "Van der Waals Volume (VDWV)": NaN,
    "Van der Waals Area (VDWA)": NaN,
    "UNIQUAC Ri Parameter (RI)": "2.256400E+00",
    "UNIQUAC Qi Parameter (QI)": "1.988000E+00",
    "Dipole Moment (DM)": "1.800000E+00 debye",
    "Radius of Gyration (GYRAD)": "2.432000E+00",
    "Liquid Density (DENL)": "1.550638E-02 g-mol/cm^3",
    "Temperature of DENL (TDENL)": "2.980000E+02 K",
    "Heat of Vaporizaiton (HVAP)": NaN,
    "Temperature of HVAP (THVAP)": NaN,
    "Surface Tension (SRF)": "2.784000E+01 dyn/cm",
    "Temperature of SRF (TSRF)": "2.932000E+02 K",
    "Dielectric Constant (DIEL)": NaN,
    "Temperature of DIEL (TDIEL)": NaN,
    "Refractive Index (RFI)": NaN,
    "Temperature of RFI (TRFI)": NaN,
    "Lower Flammability Limit(FLL)": NaN,
    "Upper Flammability Limit(FLU)": NaN,
    "Flash Point (Open Cup Method)": NaN,
    "Flash Point (Closed Cup Method)": NaN,
    "Autoignition Temperature (AIGT)": NaN,
    "NFPA Rating (Health)": 2.0,
    "NFPA Rating (Fire)": NaN,
    "NFPA Rating (Safety)": NaN,
    "Class": "Halogenated Derivatives",
    "Subclass": "Halogenated Paraffins",
    "SMILES": "C(Cl)Cl"
}