{
    "ID": "1529",
    "Name": "BROMOMETHANE",
    "Synonyms": "METHYL BROMIDE, REFRIGERANT-40B1, CURAFUME",
    "CAS No.": "74-83-9",
    "Formula": "CH3Br",
    "Molecular Wt. (WT)": "9.49387E+01",
    "Normal Boiling Point Temp. (TB)": "2.76600E+02 K",
    "Freezing Point Temp. (TF)": "1.79500E+02 K",
    "Triple Point Temp. (TT)": NaN,
    "Triple Point Press. (PT)": NaN,
    "Critical Temperature. (TC)": "4.64000E+02 K",
    "Critical Pressure (PC)": "6.61000E+03 kPa",
    "Critical Volume (VC)": NaN,
    "Critical Compressibility (ZC)": NaN,
    "Accentric Factor (ACCF)": NaN,
    "Vapor Pressure": {
        "Equation Name": "KDB Correlation Equation",
        "Equation": "ln(Pvp) = A*ln(T) + B/T + C + D*T^2 where Pvp in kPa, T in K",
        "Coefficient A": "-7.658991E+00",
        "Coefficient B": "-4.643415E+03",
        "Coefficient C": "6.366811E+01",
        "Coefficient D": "1.036689E-05",
        "Coefficient E": NaN,
        "Coefficient F": NaN,
        "Coefficient G": NaN,
        "T range, from": "179.47 K",
        "T range, to": "467.00 K"
    },
    "Heat Capacity (Ideal Gas)": {
        "Equation Name": "Polynomial Equation",
        "Equation": "Cp = A + B*T + C*T^2 + D*T^3 + E*T^4  where Cp in kJ/kg-mol , T in K",
        "Coefficient A": "1.443000E+01",
        "Coefficient B": "1.091000E-01",
        "Coefficient C": "-5.401000E-05",
        "Coefficient D": "1E-08",
        "Coefficient E": "0",
        "Coefficient F": NaN,
        "Coefficient G": NaN,
        "T range, from": NaN,
        "T range, to": NaN
    },
    "Heat Capacity (Liquid)": NaN,
    "Viscosity (Gas, Low P)": NaN,
    "Viscosity (Liquid)": NaN,
    "Themal Conductivity (Gas, Low P)": NaN,
    "Themal Conductivity (Liquid)": NaN,
    "Surface Tension": NaN,
    "Partial Molar Volume (VOLP)": NaN,
    "Solubility Parameters (SOLP)": "1.844003E+04 (J/cm^3)^0.5",
    "SRK accentric factor (WSRK)": "2.032000E-01",
    "COSTALD Characteristic Volume (VSTAR)": "1.506000E-01 m^3/kg-mol",
    "Rackett parameter (ZRA)": NaN,
    "Aniline Point (ANP)": NaN,
    "H(formation,ideal gas)at 25 C": "-3.768000E+04 kJ/kg-mol",
    "G(formation,ideal gas) at 25 C": "-2.818000E+04 kJ/kg-mol",
    "Heat of Combustion, Gross form (HCB1)": NaN,
    "Heat of Combustion, Net form (HCB2)": NaN,
    "Van der Waals Volume (VDWV)": NaN,
    "Van der Waals Area (VDWA)": NaN,
    "UNIQUAC Ri Parameter (RI)": NaN,
    "UNIQUAC Qi Parameter (QI)": NaN,
    "Dipole Moment (DM)": "1.800000E+00 debye",
    "Radius of Gyration (GYRAD)": NaN,
    "Liquid Density (DENL)": "1.829602E-02 g-mol/cm^3",
    "Temperature of DENL (TDENL)": "2.680000E+02 K",
    "Heat of Vaporizaiton (HVAP)": "2.391200E+04 kJ/kg-mol",
    "Temperature of HVAP (THVAP)": "2.775000E+02 K",
    "Surface Tension (SRF)": NaN,
    "Temperature of SRF (TSRF)": NaN,
    "Dielectric Constant (DIEL)": NaN,
    "Temperature of DIEL (TDIEL)": NaN,
    "Refractive Index (RFI)": NaN,
    "Temperature of RFI (TRFI)": NaN,
    "Lower Flammability Limit(FLL)": "1.000000E+01 % in Air",
    "Upper Flammability Limit(FLU)": "1.500000E+01 % in Air",
    "Flash Point (Open Cup Method)": NaN,
    "Flash Point (Closed Cup Method)": NaN,
    "Autoignition Temperature (AIGT)": "8.103723E+02 K",
    "NFPA Rating (Health)": NaN,
    "NFPA Rating (Fire)": NaN,
    "NFPA Rating (Safety)": NaN,
    "Class": "Halogenated Derivatives",
    "Subclass": "Halogenated Paraffins",
    "SMILES": "CBr"
}