{
    "ID": "1530",
    "Name": "CHLOROMETHANE",
    "Synonyms": "METHYL CHLORIDE, FREON 40",
    "CAS No.": "74-87-3",
    "Formula": "CH3Cl",
    "Molecular Wt. (WT)": "5.04877E+01",
    "Normal Boiling Point Temp. (TB)": "2.49060E+02 K",
    "Freezing Point Temp. (TF)": "1.75400E+02 K",
    "Triple Point Temp. (TT)": "1.75430E+02 K",
    "Triple Point Press. (PT)": NaN,
    "Critical Temperature. (TC)": "4.16250E+02 K",
    "Critical Pressure (PC)": "6.67900E+03 kPa",
    "Critical Volume (VC)": "1.39000E-01 m^3/kg-mol",
    "Critical Compressibility (ZC)": "2.68247E-01",
    "Accentric Factor (ACCF)": "1.53000E-01",
    "Vapor Pressure": {
        "Equation Name": "KDB Correlation Equation",
        "Equation": "ln(Pvp) = A*ln(T) + B/T + C + D*T^2 where Pvp in kPa, T in K",
        "Coefficient A": "-7.072977E+00",
        "Coefficient B": "-4.094935E+03",
        "Coefficient C": "5.941150E+01",
        "Coefficient D": "1.092121E-05",
        "Coefficient E": NaN,
        "Coefficient F": NaN,
        "Coefficient G": NaN,
        "T range, from": "175.00 K",
        "T range, to": "416.25 K"
    },
    "Heat Capacity (Ideal Gas)": {
        "Equation Name": "Polynomial Equation",
        "Equation": "Cp = A + B*T + C*T^2 + D*T^3 + E*T^4  where Cp in kJ/kg-mol , T in K",
        "Coefficient A": "1.388000E+01",
        "Coefficient B": "1.014000E-01",
        "Coefficient C": "-3.889000E-05",
        "Coefficient D": "2.567E-09",
        "Coefficient E": "0",
        "Coefficient F": NaN,
        "Coefficient G": NaN,
        "T range, from": NaN,
        "T range, to": NaN
    },
    "Heat Capacity (Liquid)": {
        "Equation Name": "Polynomial Equation",
        "Equation": "Cp = A + B*T + C*T^2 + D*T^3  where T in K and Cp in kJ/kg-mol.K",
        "Coefficient A": "8.709448",
        "Coefficient B": ".8846754",
        "Coefficient C": "-4.036807E-03",
        "Coefficient D": "6.280181E-06",
        "Coefficient E": NaN,
        "Coefficient F": NaN,
        "Coefficient G": NaN,
        "T range, from": "175.65 K",
        "T range, to": "393.15 K"
    },
    "Viscosity (Gas, Low P)": {
        "Equation Name": "Polynomial Equation",
        "Equation": "VISG = A + B*T + C*T^2 where T in K and VISG in cP",
        "Coefficient A": "3.847E-05",
        "Coefficient B": ".0000382",
        "Coefficient C": "-5.497E-09",
        "Coefficient D": "0",
        "Coefficient E": NaN,
        "Coefficient F": NaN,
        "Coefficient G": NaN,
        "T range, from": "273.15 K",
        "T range, to": "1273.15 K"
    },
    "Viscosity (Liquid)": {
        "Equation Name": "Andrade Equation",
        "Equation": "ln (VISL) = A + B/ T  where T in K and VISL in cP.",
        "Coefficient A": "-5.073",
        "Coefficient B": "981.9",
        "Coefficient C": "0",
        "Coefficient D": "0",
        "Coefficient E": NaN,
        "Coefficient F": NaN,
        "Coefficient G": NaN,
        "T range, from": "273.15 K",
        "T range, to": "403.15 K"
    },
    "Themal Conductivity (Gas, Low P)": {
        "Equation Name": "Polynomial Equation",
        "Equation": "THG = A + B*T + C*T^2 + D*T^3  where T in K and THG in W/m.K",
        "Coefficient A": "-.003191",
        "Coefficient B": "1.579E-05",
        "Coefficient C": "1.181E-07",
        "Coefficient D": "-5.406E-11",
        "Coefficient E": NaN,
        "Coefficient F": NaN,
        "Coefficient G": NaN,
        "T range, from": "300 K",
        "T range, to": "1270 K"
    },
    "Themal Conductivity (Liquid)": {
        "Equation Name": "Polynomial Equation",
        "Equation": "THL = A + B*T + C*T^2 + D*T^3  where T in K and THL in W/m.K",
        "Coefficient A": ".3781",
        "Coefficient B": "-.0006639",
        "Coefficient C": "-1.763E-07",
        "Coefficient D": "0",
        "Coefficient E": NaN,
        "Coefficient F": NaN,
        "Coefficient G": NaN,
        "T range, from": "176 K",
        "T range, to": "396 K"
    },
    "Surface Tension": NaN,
    "Partial Molar Volume (VOLP)": NaN,
    "Solubility Parameters (SOLP)": "1.727615E+04 (J/cm^3)^0.5",
    "SRK accentric factor (WSRK)": "1.472000E-01",
    "COSTALD Characteristic Volume (VSTAR)": "1.363000E-01 m^3/kg-mol",
    "Rackett parameter (ZRA)": "2.679000E-01",
    "Aniline Point (ANP)": NaN,
    "H(formation,ideal gas)at 25 C": "-8.637000E+04 kJ/kg-mol",
    "G(formation,ideal gas) at 25 C": "-6.293000E+04 kJ/kg-mol",
    "Heat of Combustion, Gross form (HCB1)": NaN,
    "Heat of Combustion, Net form (HCB2)": NaN,
    "Van der Waals Volume (VDWV)": NaN,
    "Van der Waals Area (VDWA)": NaN,
    "UNIQUAC Ri Parameter (RI)": NaN,
    "UNIQUAC Qi Parameter (QI)": NaN,
    "Dipole Moment (DM)": "1.900000E+00 debye",
    "Radius of Gyration (GYRAD)": NaN,
    "Liquid Density (DENL)": "1.812323E-02 g-mol/cm^3",
    "Temperature of DENL (TDENL)": "2.930000E+02 K",
    "Heat of Vaporizaiton (HVAP)": "2.142200E+04 kJ/kg-mol",
    "Temperature of HVAP (THVAP)": "2.492000E+02 K",
    "Surface Tension (SRF)": "1.620000E+01 dyn/cm",
    "Temperature of SRF (TSRF)": "2.932000E+02 K",
    "Dielectric Constant (DIEL)": NaN,
    "Temperature of DIEL (TDIEL)": NaN,
    "Refractive Index (RFI)": NaN,
    "Temperature of RFI (TRFI)": NaN,
    "Lower Flammability Limit(FLL)": "8.100000E+00 % in Air",
    "Upper Flammability Limit(FLU)": "1.720000E+01 % in Air",
    "Flash Point (Open Cup Method)": "2.731500E+02 K",
    "Flash Point (Closed Cup Method)": NaN,
    "Autoignition Temperature (AIGT)": "9.053723E+02 K",
    "NFPA Rating (Health)": "2",
    "NFPA Rating (Fire)": "4",
    "NFPA Rating (Safety)": NaN,
    "Class": "Halogenated Derivatives",
    "Subclass": "Halogenated Paraffins",
    "SMILES": "CCl"
}