{
    "ID": "1531",
    "Name": "FLUOROMETHANE",
    "Synonyms": "METHYL FLUORIDE, REFRIGERANT-41, FREON 41",
    "CAS No.": "593-53-3",
    "Formula": "CH3F",
    "Molecular Wt. (WT)": "3.40331E+01",
    "Normal Boiling Point Temp. (TB)": "1.94740E+02 K",
    "Freezing Point Temp. (TF)": "1.31300E+02 K",
    "Triple Point Temp. (TT)": NaN,
    "Triple Point Press. (PT)": NaN,
    "Critical Temperature. (TC)": "3.17800E+02 K",
    "Critical Pressure (PC)": "5.88000E+03 kPa",
    "Critical Volume (VC)": "1.13000E-01 m^3/kg-mol",
    "Critical Compressibility (ZC)": "2.51458E-01",
    "Accentric Factor (ACCF)": "1.87000E-01",
    "Vapor Pressure": {
        "Equation Name": "KDB Correlation Equation",
        "Equation": "ln(Pvp) = A*ln(T) + B/T + C + D*T^2 where Pvp in kPa, T in K",
        "Coefficient A": "-8.742703E+00",
        "Coefficient B": "-3.404434E+03",
        "Coefficient C": "6.720380E+01",
        "Coefficient D": "2.556979E-05",
        "Coefficient E": NaN,
        "Coefficient F": NaN,
        "Coefficient G": NaN,
        "T range, from": "131.35 K",
        "T range, to": "317.70 K"
    },
    "Heat Capacity (Ideal Gas)": {
        "Equation Name": "Polynomial Equation",
        "Equation": "Cp = A + B*T + C*T^2 + D*T^3 + E*T^4  where Cp in kJ/kg-mol , T in K",
        "Coefficient A": "1.382000E+01",
        "Coefficient B": "8.616000E-02",
        "Coefficient C": "-2.071000E-05",
        "Coefficient D": "-1.985E-09",
        "Coefficient E": "0",
        "Coefficient F": NaN,
        "Coefficient G": NaN,
        "T range, from": NaN,
        "T range, to": NaN
    },
    "Heat Capacity (Liquid)": NaN,
    "Viscosity (Gas, Low P)": NaN,
    "Viscosity (Liquid)": NaN,
    "Themal Conductivity (Gas, Low P)": NaN,
    "Themal Conductivity (Liquid)": NaN,
    "Surface Tension": NaN,
    "Partial Molar Volume (VOLP)": NaN,
    "Solubility Parameters (SOLP)": "8.488753E+03 (J/cm^3)^0.5",
    "SRK accentric factor (WSRK)": "1.851000E-01",
    "COSTALD Characteristic Volume (VSTAR)": "1.054000E-01 m^3/kg-mol",
    "Rackett parameter (ZRA)": "2.491000E-01",
    "Aniline Point (ANP)": NaN,
    "H(formation,ideal gas)at 25 C": "-2.340000E+05 kJ/kg-mol",
    "G(formation,ideal gas) at 25 C": "-2.101000E+05 kJ/kg-mol",
    "Heat of Combustion, Gross form (HCB1)": NaN,
    "Heat of Combustion, Net form (HCB2)": NaN,
    "Van der Waals Volume (VDWV)": NaN,
    "Van der Waals Area (VDWA)": NaN,
    "UNIQUAC Ri Parameter (RI)": NaN,
    "UNIQUAC Qi Parameter (QI)": NaN,
    "Dipole Moment (DM)": "1.800000E+00 debye",
    "Radius of Gyration (GYRAD)": NaN,
    "Liquid Density (DENL)": "2.477000E-02 g-mol/cm^3",
    "Temperature of DENL (TDENL)": "2.130000E+02 K",
    "Heat of Vaporizaiton (HVAP)": NaN,
    "Temperature of HVAP (THVAP)": NaN,
    "Surface Tension (SRF)": NaN,
    "Temperature of SRF (TSRF)": NaN,
    "Dielectric Constant (DIEL)": NaN,
    "Temperature of DIEL (TDIEL)": NaN,
    "Refractive Index (RFI)": NaN,
    "Temperature of RFI (TRFI)": NaN,
    "Lower Flammability Limit(FLL)": NaN,
    "Upper Flammability Limit(FLU)": NaN,
    "Flash Point (Open Cup Method)": NaN,
    "Flash Point (Closed Cup Method)": NaN,
    "Autoignition Temperature (AIGT)": NaN,
    "NFPA Rating (Health)": NaN,
    "NFPA Rating (Fire)": NaN,
    "NFPA Rating (Safety)": NaN,
    "Class": "Halogenated Derivatives",
    "Subclass": "Halogenated Paraffins",
    "SMILES": "CF"
}