{
    "ID": "1535",
    "Name": "CHLOROPENTAFLUOROETHANE",
    "Synonyms": "REFRIGERANT-115, FLUOROCARBON 115, FREON 115",
    "CAS No.": "76-15-3",
    "Formula": "C2ClF5",
    "Molecular Wt. (WT)": "1.54467E+02",
    "Normal Boiling Point Temp. (TB)": "2.35200E+02 K",
    "Freezing Point Temp. (TF)": "1.73710E+02 K",
    "Triple Point Temp. (TT)": "1.73710E+02 K",
    "Triple Point Press. (PT)": NaN,
    "Critical Temperature. (TC)": "3.53200E+02 K",
    "Critical Pressure (PC)": "3.22900E+03 kPa",
    "Critical Volume (VC)": "2.52000E-01 m^3/kg-mol",
    "Critical Compressibility (ZC)": "2.77084E-01",
    "Accentric Factor (ACCF)": "2.79000E-01",
    "Vapor Pressure": {
        "Equation Name": "KDB Correlation Equation",
        "Equation": "ln(Pvp) = A*ln(T) + B/T + C + D*T^2 where Pvp in kPa, T in K",
        "Coefficient A": "-8.858903E+00",
        "Coefficient B": "-4.087410E+03",
        "Coefficient C": "6.947419E+01",
        "Coefficient D": "1.717565E-05",
        "Coefficient E": NaN,
        "Coefficient F": NaN,
        "Coefficient G": NaN,
        "T range, from": "174.00 K",
        "T range, to": "353.00 K"
    },
    "Heat Capacity (Ideal Gas)": {
        "Equation Name": "Polynomial Equation",
        "Equation": "Cp = A + B*T + C*T^2 + D*T^3 + E*T^4  where Cp in kJ/kg-mol , T in K",
        "Coefficient A": "2.783000E+01",
        "Coefficient B": "3.492000E-01",
        "Coefficient C": "-2.891000E-04",
        "Coefficient D": "8.139E-08",
        "Coefficient E": "0",
        "Coefficient F": NaN,
        "Coefficient G": NaN,
        "T range, from": NaN,
        "T range, to": NaN
    },
    "Heat Capacity (Liquid)": NaN,
    "Viscosity (Gas, Low P)": NaN,
    "Viscosity (Liquid)": NaN,
    "Themal Conductivity (Gas, Low P)": NaN,
    "Themal Conductivity (Liquid)": NaN,
    "Surface Tension": NaN,
    "Partial Molar Volume (VOLP)": NaN,
    "Solubility Parameters (SOLP)": "7.308510E+03 (J/cm^3)^0.5",
    "SRK accentric factor (WSRK)": NaN,
    "COSTALD Characteristic Volume (VSTAR)": NaN,
    "Rackett parameter (ZRA)": NaN,
    "Aniline Point (ANP)": NaN,
    "H(formation,ideal gas)at 25 C": NaN,
    "G(formation,ideal gas) at 25 C": NaN,
    "Heat of Combustion, Gross form (HCB1)": NaN,
    "Heat of Combustion, Net form (HCB2)": NaN,
    "Van der Waals Volume (VDWV)": NaN,
    "Van der Waals Area (VDWA)": NaN,
    "UNIQUAC Ri Parameter (RI)": NaN,
    "UNIQUAC Qi Parameter (QI)": NaN,
    "Dipole Moment (DM)": "3.000000E-01 debye",
    "Radius of Gyration (GYRAD)": NaN,
    "Liquid Density (DENL)": "8.157082E-03 g-mol/cm^3",
    "Temperature of DENL (TDENL)": "3.030000E+02 K",
    "Heat of Vaporizaiton (HVAP)": "1.945600E+04 kJ/kg-mol",
    "Temperature of HVAP (THVAP)": "2.347000E+02 K",
    "Surface Tension (SRF)": "5.000000E+00 dyn/cm",
    "Temperature of SRF (TSRF)": "2.982000E+02 K",
    "Dielectric Constant (DIEL)": NaN,
    "Temperature of DIEL (TDIEL)": NaN,
    "Refractive Index (RFI)": NaN,
    "Temperature of RFI (TRFI)": NaN,
    "Lower Flammability Limit(FLL)": NaN,
    "Upper Flammability Limit(FLU)": NaN,
    "Flash Point (Open Cup Method)": NaN,
    "Flash Point (Closed Cup Method)": NaN,
    "Autoignition Temperature (AIGT)": NaN,
    "NFPA Rating (Health)": NaN,
    "NFPA Rating (Fire)": NaN,
    "NFPA Rating (Safety)": NaN,
    "Class": "Halogenated Derivatives",
    "Subclass": "Halogenated Paraffins",
    "SMILES": "C(C(F)(F)Cl)(F)(F)F"
}