{
    "ID": "1537",
    "Name": "1,2-DICHLOROTETRAFLUOROETHANE",
    "Synonyms": "REFRIGERANT-114, 1,2-DICHLORO-1,1,2,2-TETRAFLUOROETHANE, FREON 114",
    "CAS No.": "76-14-2",
    "Formula": "C2Cl2F4",
    "Molecular Wt. (WT)": "1.70922E+02",
    "Normal Boiling Point Temp. (TB)": "2.76900E+02 K",
    "Freezing Point Temp. (TF)": "1.79000E+02 K",
    "Triple Point Temp. (TT)": NaN,
    "Triple Point Press. (PT)": NaN,
    "Critical Temperature. (TC)": "4.18780E+02 K",
    "Critical Pressure (PC)": "3.25200E+03 kPa",
    "Critical Volume (VC)": "2.97000E-01 m^3/kg-mol",
    "Critical Compressibility (ZC)": "2.77386E-01",
    "Accentric Factor (ACCF)": "2.46000E-01",
    "Vapor Pressure": {
        "Equation Name": "KDB Correlation Equation",
        "Equation": "ln(Pvp) = A*ln(T) + B/T + C + D*T^2 where Pvp in kPa, T in K",
        "Coefficient A": "-1.075996E+01",
        "Coefficient B": "-5.265280E+03",
        "Coefficient C": "8.299948E+01",
        "Coefficient D": "1.496591E-05",
        "Coefficient E": NaN,
        "Coefficient F": NaN,
        "Coefficient G": NaN,
        "T range, from": "179.15 K",
        "T range, to": "418.85 K"
    },
    "Heat Capacity (Ideal Gas)": {
        "Equation Name": "Polynomial Equation",
        "Equation": "Cp = A + B*T + C*T^2 + D*T^3 + E*T^4  where Cp in kJ/kg-mol , T in K",
        "Coefficient A": "3.878000E+01",
        "Coefficient B": "3.440000E-01",
        "Coefficient C": "-2.950000E-04",
        "Coefficient D": "8.508E-08",
        "Coefficient E": "0",
        "Coefficient F": NaN,
        "Coefficient G": NaN,
        "T range, from": NaN,
        "T range, to": NaN
    },
    "Heat Capacity (Liquid)": NaN,
    "Viscosity (Gas, Low P)": NaN,
    "Viscosity (Liquid)": NaN,
    "Themal Conductivity (Gas, Low P)": NaN,
    "Themal Conductivity (Liquid)": NaN,
    "Surface Tension": NaN,
    "Partial Molar Volume (VOLP)": NaN,
    "Solubility Parameters (SOLP)": "1.260426E+04 (J/cm^3)^0.5",
    "SRK accentric factor (WSRK)": NaN,
    "COSTALD Characteristic Volume (VSTAR)": NaN,
    "Rackett parameter (ZRA)": NaN,
    "Aniline Point (ANP)": NaN,
    "H(formation,ideal gas)at 25 C": "-8.984999E+05 kJ/kg-mol",
    "G(formation,ideal gas) at 25 C": NaN,
    "Heat of Combustion, Gross form (HCB1)": NaN,
    "Heat of Combustion, Net form (HCB2)": NaN,
    "Van der Waals Volume (VDWV)": NaN,
    "Van der Waals Area (VDWA)": NaN,
    "UNIQUAC Ri Parameter (RI)": NaN,
    "UNIQUAC Qi Parameter (QI)": NaN,
    "Dipole Moment (DM)": "5.000000E-01 debye",
    "Radius of Gyration (GYRAD)": NaN,
    "Liquid Density (DENL)": "8.658941E-03 g-mol/cm^3",
    "Temperature of DENL (TDENL)": "2.770000E+02 K",
    "Heat of Vaporizaiton (HVAP)": "2.326300E+04 kJ/kg-mol",
    "Temperature of HVAP (THVAP)": "2.773000E+02 K",
    "Surface Tension (SRF)": "2.610000E+01 dyn/cm",
    "Temperature of SRF (TSRF)": "2.732000E+02 K",
    "Dielectric Constant (DIEL)": NaN,
    "Temperature of DIEL (TDIEL)": NaN,
    "Refractive Index (RFI)": NaN,
    "Temperature of RFI (TRFI)": NaN,
    "Lower Flammability Limit(FLL)": NaN,
    "Upper Flammability Limit(FLU)": NaN,
    "Flash Point (Open Cup Method)": NaN,
    "Flash Point (Closed Cup Method)": NaN,
    "Autoignition Temperature (AIGT)": NaN,
    "NFPA Rating (Health)": NaN,
    "NFPA Rating (Fire)": NaN,
    "NFPA Rating (Safety)": NaN,
    "Class": "Halogenated Derivatives",
    "Subclass": "Halogenated Paraffins",
    "SMILES": "C(C(F)(F)Cl)(F)(F)Cl"
}