{
    "ID": "1547",
    "Name": "HEXAFLUOROETHANE",
    "Synonyms": "PERFLUOROETHANE, REFRIGERANT-116, FREON 116",
    "CAS No.": "76-16-4",
    "Formula": "C2F6",
    "Molecular Wt. (WT)": "1.38012E+02",
    "Normal Boiling Point Temp. (TB)": "1.95000E+02 K",
    "Freezing Point Temp. (TF)": "1.72400E+02 K",
    "Triple Point Temp. (TT)": NaN,
    "Triple Point Press. (PT)": NaN,
    "Critical Temperature. (TC)": "2.93000E+02 K",
    "Critical Pressure (PC)": "3.06000E+03 kPa",
    "Critical Volume (VC)": "2.22000E-01 m^3/kg-mol",
    "Critical Compressibility (ZC)": "2.78850E-01",
    "Accentric Factor (ACCF)": NaN,
    "Vapor Pressure": {
        "Equation Name": "KDB Correlation Equation",
        "Equation": "ln(Pvp) = A*ln(T) + B/T + C + D*T^2 where Pvp in kPa, T in K",
        "Coefficient A": "-6.231489E+00",
        "Coefficient B": "-3.015850E+03",
        "Coefficient C": "5.234905E+01",
        "Coefficient D": "1.576911E-05",
        "Coefficient E": NaN,
        "Coefficient F": NaN,
        "Coefficient G": NaN,
        "T range, from": "172.45 K",
        "T range, to": "293.00 K"
    },
    "Heat Capacity (Ideal Gas)": {
        "Equation Name": "Polynomial Equation",
        "Equation": "Cp = A + B*T + C*T^2 + D*T^3 + E*T^4  where Cp in kJ/kg-mol , T in K",
        "Coefficient A": "2.682000E+01",
        "Coefficient B": "3.458000E-01",
        "Coefficient C": "-2.869000E-04",
        "Coefficient D": "8.135E-08",
        "Coefficient E": "0",
        "Coefficient F": NaN,
        "Coefficient G": NaN,
        "T range, from": NaN,
        "T range, to": NaN
    },
    "Heat Capacity (Liquid)": NaN,
    "Viscosity (Gas, Low P)": NaN,
    "Viscosity (Liquid)": NaN,
    "Themal Conductivity (Gas, Low P)": NaN,
    "Themal Conductivity (Liquid)": NaN,
    "Surface Tension": NaN,
    "Partial Molar Volume (VOLP)": NaN,
    "Solubility Parameters (SOLP)": NaN,
    "SRK accentric factor (WSRK)": NaN,
    "COSTALD Characteristic Volume (VSTAR)": NaN,
    "Rackett parameter (ZRA)": NaN,
    "Aniline Point (ANP)": NaN,
    "H(formation,ideal gas)at 25 C": "-1.344000E+06 kJ/kg-mol",
    "G(formation,ideal gas) at 25 C": "-1.258000E+06 kJ/kg-mol",
    "Heat of Combustion, Gross form (HCB1)": NaN,
    "Heat of Combustion, Net form (HCB2)": NaN,
    "Van der Waals Volume (VDWV)": NaN,
    "Van der Waals Area (VDWA)": NaN,
    "UNIQUAC Ri Parameter (RI)": NaN,
    "UNIQUAC Qi Parameter (QI)": NaN,
    "Dipole Moment (DM)": "0.000000E+00 debye",
    "Radius of Gyration (GYRAD)": NaN,
    "Liquid Density (DENL)": "1.152070E-02 g-mol/cm^3",
    "Temperature of DENL (TDENL)": "1.950000E+02 K",
    "Heat of Vaporizaiton (HVAP)": "1.615000E+04 kJ/kg-mol",
    "Temperature of HVAP (THVAP)": "1.949000E+02 K",
    "Surface Tension (SRF)": "1.720000E+01 dyn/cm",
    "Temperature of SRF (TSRF)": "1.932000E+02 K",
    "Dielectric Constant (DIEL)": NaN,
    "Temperature of DIEL (TDIEL)": NaN,
    "Refractive Index (RFI)": NaN,
    "Temperature of RFI (TRFI)": NaN,
    "Lower Flammability Limit(FLL)": NaN,
    "Upper Flammability Limit(FLU)": NaN,
    "Flash Point (Open Cup Method)": NaN,
    "Flash Point (Closed Cup Method)": NaN,
    "Autoignition Temperature (AIGT)": NaN,
    "NFPA Rating (Health)": NaN,
    "NFPA Rating (Fire)": NaN,
    "NFPA Rating (Safety)": NaN,
    "Class": "Halogenated Derivatives",
    "Subclass": "Halogenated Paraffins",
    "SMILES": "C(C(F)(F)F)(F)(F)F"
}