{
    "ID": "1571",
    "Name": "1,2-DIBROMOETHANE",
    "Synonyms": "ETHYLENE DIBROMIDE, ALPHA,BETA-DIBROMOETHANE",
    "CAS No.": "106-93-4",
    "Formula": "C2H4Br2",
    "Molecular Wt. (WT)": "1.87862E+02",
    "Normal Boiling Point Temp. (TB)": "4.04700E+02 K",
    "Freezing Point Temp. (TF)": "2.83080E+02 K",
    "Triple Point Temp. (TT)": "2.82900E+02 K",
    "Triple Point Press. (PT)": NaN,
    "Critical Temperature. (TC)": "5.83000E+02 K",
    "Critical Pressure (PC)": "7.20000E+03 kPa",
    "Critical Volume (VC)": NaN,
    "Critical Compressibility (ZC)": NaN,
    "Accentric Factor (ACCF)": "7.95000E-01",
    "Vapor Pressure": {
        "Equation Name": "KDB Correlation Equation",
        "Equation": "ln(Pvp) = A*ln(T) + B/T + C + D*T^2 where Pvp in kPa, T in K",
        "Coefficient A": "-2.832164E+00",
        "Coefficient B": "-5.520465E+03",
        "Coefficient C": "3.516852E+01",
        "Coefficient D": "6.027471E-07",
        "Coefficient E": NaN,
        "Coefficient F": NaN,
        "Coefficient G": NaN,
        "T range, from": "282.94 K",
        "T range, to": "650.15 K"
    },
    "Heat Capacity (Ideal Gas)": {
        "Equation Name": "Polynomial Equation",
        "Equation": "Cp = A + B*T + C*T^2 + D*T^3 + E*T^4  where Cp in kJ/kg-mol , T in K",
        "Coefficient A": "2.500000E+01",
        "Coefficient B": "2.517000E-01",
        "Coefficient C": "-1.833000E-04",
        "Coefficient D": "5.646E-08",
        "Coefficient E": "0",
        "Coefficient F": NaN,
        "Coefficient G": NaN,
        "T range, from": NaN,
        "T range, to": NaN
    },
    "Heat Capacity (Liquid)": NaN,
    "Viscosity (Gas, Low P)": NaN,
    "Viscosity (Liquid)": {
        "Equation Name": "Andrade Equation",
        "Equation": "ln (VISL) = A + B/ T  where T in K and VISL in cP.",
        "Coefficient A": "-3.899",
        "Coefficient B": "1299",
        "Coefficient C": "0",
        "Coefficient D": "0",
        "Coefficient E": NaN,
        "Coefficient F": NaN,
        "Coefficient G": NaN,
        "T range, from": "273.15 K",
        "T range, to": "403.15 K"
    },
    "Themal Conductivity (Gas, Low P)": NaN,
    "Themal Conductivity (Liquid)": NaN,
    "Surface Tension": NaN,
    "Partial Molar Volume (VOLP)": "8.663000E-02 m^3/kg-mol",
    "Solubility Parameters (SOLP)": "2.094983E+04 (J/cm^3)^0.5",
    "SRK accentric factor (WSRK)": NaN,
    "COSTALD Characteristic Volume (VSTAR)": NaN,
    "Rackett parameter (ZRA)": NaN,
    "Aniline Point (ANP)": NaN,
    "H(formation,ideal gas)at 25 C": "-3.894000E+04 kJ/kg-mol",
    "G(formation,ideal gas) at 25 C": "-1.060000E+04 kJ/kg-mol",
    "Heat of Combustion, Gross form (HCB1)": NaN,
    "Heat of Combustion, Net form (HCB2)": NaN,
    "Van der Waals Volume (VDWV)": NaN,
    "Van der Waals Area (VDWA)": NaN,
    "UNIQUAC Ri Parameter (RI)": "3.250000E+00",
    "UNIQUAC Qi Parameter (QI)": "2.740000E+00",
    "Dipole Moment (DM)": "1.000000E+00 debye",
    "Radius of Gyration (GYRAD)": NaN,
    "Liquid Density (DENL)": "1.160429E-02 g-mol/cm^3",
    "Temperature of DENL (TDENL)": "2.930000E+02 K",
    "Heat of Vaporizaiton (HVAP)": "3.635900E+04 kJ/kg-mol",
    "Temperature of HVAP (THVAP)": "4.046000E+02 K",
    "Surface Tension (SRF)": "4.021000E+01 dyn/cm",
    "Temperature of SRF (TSRF)": "2.932000E+02 K",
    "Dielectric Constant (DIEL)": NaN,
    "Temperature of DIEL (TDIEL)": NaN,
    "Refractive Index (RFI)": NaN,
    "Temperature of RFI (TRFI)": NaN,
    "Lower Flammability Limit(FLL)": NaN,
    "Upper Flammability Limit(FLU)": NaN,
    "Flash Point (Open Cup Method)": NaN,
    "Flash Point (Closed Cup Method)": NaN,
    "Autoignition Temperature (AIGT)": NaN,
    "NFPA Rating (Health)": NaN,
    "NFPA Rating (Fire)": NaN,
    "NFPA Rating (Safety)": NaN,
    "Class": "Halogenated Derivatives",
    "Subclass": "Halogenated Paraffins",
    "SMILES": "C(CBr)Br"
}