{
    "ID": "1572",
    "Name": "1,1-DICHLOROETHANE",
    "Synonyms": "REFRIGERANT-150A, ETHYLIDENE DICHLORIDE",
    "CAS No.": "75-34-3",
    "Formula": "C2H4Cl2",
    "Molecular Wt. (WT)": "9.89596E+01",
    "Normal Boiling Point Temp. (TB)": "3.30500E+02 K",
    "Freezing Point Temp. (TF)": "1.76190E+02 K",
    "Triple Point Temp. (TT)": NaN,
    "Triple Point Press. (PT)": NaN,
    "Critical Temperature. (TC)": "5.23000E+02 K",
    "Critical Pressure (PC)": "5.07000E+03 kPa",
    "Critical Volume (VC)": "2.36000E-01 m^3/kg-mol",
    "Critical Compressibility (ZC)": "2.75158E-01",
    "Accentric Factor (ACCF)": "2.40000E-01",
    "Vapor Pressure": {
        "Equation Name": "KDB Correlation Equation",
        "Equation": "ln(Pvp) = A*ln(T) + B/T + C + D*T^2 where Pvp in kPa, T in K",
        "Coefficient A": "-8.862622E+00",
        "Coefficient B": "-5.957595E+03",
        "Coefficient C": "7.317005E+01",
        "Coefficient D": "8.181259E-06",
        "Coefficient E": NaN,
        "Coefficient F": NaN,
        "Coefficient G": NaN,
        "T range, from": "176.19 K",
        "T range, to": "523.00 K"
    },
    "Heat Capacity (Ideal Gas)": {
        "Equation Name": "Polynomial Equation",
        "Equation": "Cp = A + B*T + C*T^2 + D*T^3 + E*T^4  where Cp in kJ/kg-mol , T in K",
        "Coefficient A": "1.247000E+01",
        "Coefficient B": "2.696000E-01",
        "Coefficient C": "-2.050000E-04",
        "Coefficient D": "6.301E-08",
        "Coefficient E": "0",
        "Coefficient F": NaN,
        "Coefficient G": NaN,
        "T range, from": NaN,
        "T range, to": NaN
    },
    "Heat Capacity (Liquid)": NaN,
    "Viscosity (Gas, Low P)": NaN,
    "Viscosity (Liquid)": {
        "Equation Name": "Andrade Equation",
        "Equation": "ln (VISL) = A + B/ T  where T in K and VISL in cP.",
        "Coefficient A": "-3.97",
        "Coefficient B": "949.3",
        "Coefficient C": "0",
        "Coefficient D": "0",
        "Coefficient E": NaN,
        "Coefficient F": NaN,
        "Coefficient G": NaN,
        "T range, from": "280.15 K",
        "T range, to": "333.15 K"
    },
    "Themal Conductivity (Gas, Low P)": NaN,
    "Themal Conductivity (Liquid)": NaN,
    "Surface Tension": NaN,
    "Partial Molar Volume (VOLP)": "7.887000E-02 m^3/kg-mol",
    "Solubility Parameters (SOLP)": "1.824980E+04 (J/cm^3)^0.5",
    "SRK accentric factor (WSRK)": "2.365000E-01",
    "COSTALD Characteristic Volume (VSTAR)": "2.369000E-01 m^3/kg-mol",
    "Rackett parameter (ZRA)": NaN,
    "Aniline Point (ANP)": NaN,
    "H(formation,ideal gas)at 25 C": "-1.300000E+05 kJ/kg-mol",
    "G(formation,ideal gas) at 25 C": "-7.314000E+04 kJ/kg-mol",
    "Heat of Combustion, Gross form (HCB1)": NaN,
    "Heat of Combustion, Net form (HCB2)": NaN,
    "Van der Waals Volume (VDWV)": NaN,
    "Van der Waals Area (VDWA)": NaN,
    "UNIQUAC Ri Parameter (RI)": "2.930800E+00",
    "UNIQUAC Qi Parameter (QI)": "2.528000E+00",
    "Dipole Moment (DM)": "2.000000E+00 debye",
    "Radius of Gyration (GYRAD)": NaN,
    "Liquid Density (DENL)": "1.180280E-02 g-mol/cm^3",
    "Temperature of DENL (TDENL)": "2.980000E+02 K",
    "Heat of Vaporizaiton (HVAP)": "2.870200E+04 kJ/kg-mol",
    "Temperature of HVAP (THVAP)": "3.307000E+02 K",
    "Surface Tension (SRF)": "2.466000E+01 dyn/cm",
    "Temperature of SRF (TSRF)": "2.932000E+02 K",
    "Dielectric Constant (DIEL)": NaN,
    "Temperature of DIEL (TDIEL)": NaN,
    "Refractive Index (RFI)": NaN,
    "Temperature of RFI (TRFI)": NaN,
    "Lower Flammability Limit(FLL)": NaN,
    "Upper Flammability Limit(FLU)": NaN,
    "Flash Point (Open Cup Method)": NaN,
    "Flash Point (Closed Cup Method)": NaN,
    "Autoignition Temperature (AIGT)": NaN,
    "NFPA Rating (Health)": 2.0,
    "NFPA Rating (Fire)": 3.0,
    "NFPA Rating (Safety)": NaN,
    "Class": "Halogenated Derivatives",
    "Subclass": "Halogenated Paraffins",
    "SMILES": "CC(Cl)Cl"
}