{
    "ID": "1573",
    "Name": "1,2-DICHLOROETHANE",
    "Synonyms": "ETHYLENE DICHLORIDE, ALPHA,BETA-DICHLOROETHANE",
    "CAS No.": "107-06-2",
    "Formula": "C2H4Cl2",
    "Molecular Wt. (WT)": "9.89596E+01",
    "Normal Boiling Point Temp. (TB)": "3.56600E+02 K",
    "Freezing Point Temp. (TF)": "2.37600E+02 K",
    "Triple Point Temp. (TT)": NaN,
    "Triple Point Press. (PT)": NaN,
    "Critical Temperature. (TC)": "5.61000E+02 K",
    "Critical Pressure (PC)": "5.40000E+03 kPa",
    "Critical Volume (VC)": "2.25000E-01 m^3/kg-mol",
    "Critical Compressibility (ZC)": "2.60481E-01",
    "Accentric Factor (ACCF)": "2.78000E-01",
    "Vapor Pressure": {
        "Equation Name": "KDB Correlation Equation",
        "Equation": "ln(Pvp) = A*ln(T) + B/T + C + D*T^2 where Pvp in kPa, T in K",
        "Coefficient A": "-1.038248E+01",
        "Coefficient B": "-6.904904E+03",
        "Coefficient C": "8.396795E+01",
        "Coefficient D": "8.368130E-06",
        "Coefficient E": NaN,
        "Coefficient F": NaN,
        "Coefficient G": NaN,
        "T range, from": "237.49 K",
        "T range, to": "561.00 K"
    },
    "Heat Capacity (Ideal Gas)": {
        "Equation Name": "Polynomial Equation",
        "Equation": "Cp = A + B*T + C*T^2 + D*T^3 + E*T^4  where Cp in kJ/kg-mol , T in K",
        "Coefficient A": "2.049000E+01",
        "Coefficient B": "2.310000E-01",
        "Coefficient C": "-1.438000E-04",
        "Coefficient D": "3.389E-08",
        "Coefficient E": "0",
        "Coefficient F": NaN,
        "Coefficient G": NaN,
        "T range, from": NaN,
        "T range, to": NaN
    },
    "Heat Capacity (Liquid)": NaN,
    "Viscosity (Gas, Low P)": NaN,
    "Viscosity (Liquid)": {
        "Equation Name": "Andrade Equation",
        "Equation": "ln (VISL) = A + B/ T  where T in K and VISL in cP.",
        "Coefficient A": "-3.926",
        "Coefficient B": "1091",
        "Coefficient C": "0",
        "Coefficient D": "0",
        "Coefficient E": NaN,
        "Coefficient F": NaN,
        "Coefficient G": NaN,
        "T range, from": "273.15 K",
        "T range, to": "373.15 K"
    },
    "Themal Conductivity (Gas, Low P)": NaN,
    "Themal Conductivity (Liquid)": NaN,
    "Surface Tension": NaN,
    "Partial Molar Volume (VOLP)": "7.887000E-02 m^3/kg-mol",
    "Solubility Parameters (SOLP)": "2.037096E+04 (J/cm^3)^0.5",
    "SRK accentric factor (WSRK)": "2.754000E-01",
    "COSTALD Characteristic Volume (VSTAR)": "2.302000E-01 m^3/kg-mol",
    "Rackett parameter (ZRA)": "2.660000E-01",
    "Aniline Point (ANP)": NaN,
    "H(formation,ideal gas)at 25 C": "-1.298000E+05 kJ/kg-mol",
    "G(formation,ideal gas) at 25 C": "-7.390000E+04 kJ/kg-mol",
    "Heat of Combustion, Gross form (HCB1)": NaN,
    "Heat of Combustion, Net form (HCB2)": NaN,
    "Van der Waals Volume (VDWV)": NaN,
    "Van der Waals Area (VDWA)": NaN,
    "UNIQUAC Ri Parameter (RI)": "2.930800E+00",
    "UNIQUAC Qi Parameter (QI)": "2.528000E+00",
    "Dipole Moment (DM)": "1.800000E+00 debye",
    "Radius of Gyration (GYRAD)": "2.851000E+00",
    "Liquid Density (DENL)": "1.263142E-02 g-mol/cm^3",
    "Temperature of DENL (TDENL)": "2.890000E+02 K",
    "Heat of Vaporizaiton (HVAP)": "3.200800E+04 kJ/kg-mol",
    "Temperature of HVAP (THVAP)": "3.571000E+02 K",
    "Surface Tension (SRF)": "3.257000E+01 dyn/cm",
    "Temperature of SRF (TSRF)": "2.932000E+02 K",
    "Dielectric Constant (DIEL)": NaN,
    "Temperature of DIEL (TDIEL)": NaN,
    "Refractive Index (RFI)": NaN,
    "Temperature of RFI (TRFI)": NaN,
    "Lower Flammability Limit(FLL)": NaN,
    "Upper Flammability Limit(FLU)": NaN,
    "Flash Point (Open Cup Method)": NaN,
    "Flash Point (Closed Cup Method)": NaN,
    "Autoignition Temperature (AIGT)": NaN,
    "NFPA Rating (Health)": NaN,
    "NFPA Rating (Fire)": NaN,
    "NFPA Rating (Safety)": NaN,
    "Class": "Halogenated Derivatives",
    "Subclass": "Halogenated Paraffins",
    "SMILES": "C(CCl)Cl"
}