{
    "ID": "1574",
    "Name": "1,1-DIFLUOROETHANE",
    "Synonyms": "REFRIGERANT-152A, ETHYLIDENE FLUORIDE, FREON 152A",
    "CAS No.": "75-37-6",
    "Formula": "C2H4F2",
    "Molecular Wt. (WT)": "6.60504E+01",
    "Normal Boiling Point Temp. (TB)": "2.48200E+02 K",
    "Freezing Point Temp. (TF)": "1.56000E+02 K",
    "Triple Point Temp. (TT)": NaN,
    "Triple Point Press. (PT)": NaN,
    "Critical Temperature. (TC)": "3.86700E+02 K",
    "Critical Pressure (PC)": "4.50000E+03 kPa",
    "Critical Volume (VC)": "1.81000E-01 m^3/kg-mol",
    "Critical Compressibility (ZC)": "2.53326E-01",
    "Accentric Factor (ACCF)": "2.56000E-01",
    "Vapor Pressure": {
        "Equation Name": "KDB Correlation Equation",
        "Equation": "ln(Pvp) = A*ln(T) + B/T + C + D*T^2 where Pvp in kPa, T in K",
        "Coefficient A": "-8.802716E+00",
        "Coefficient B": "-4.447866E+03",
        "Coefficient C": "7.017548E+01",
        "Coefficient D": "1.462753E-05",
        "Coefficient E": NaN,
        "Coefficient F": NaN,
        "Coefficient G": NaN,
        "T range, from": "156.15 K",
        "T range, to": "386.60 K"
    },
    "Heat Capacity (Ideal Gas)": {
        "Equation Name": "Polynomial Equation",
        "Equation": "Cp = A + B*T + C*T^2 + D*T^3 + E*T^4  where Cp in kJ/kg-mol , T in K",
        "Coefficient A": "8.675000E+01",
        "Coefficient B": "2.396000E-01",
        "Coefficient C": "-1.457000E-04",
        "Coefficient D": "3.394E-08",
        "Coefficient E": "0",
        "Coefficient F": NaN,
        "Coefficient G": NaN,
        "T range, from": NaN,
        "T range, to": NaN
    },
    "Heat Capacity (Liquid)": NaN,
    "Viscosity (Gas, Low P)": NaN,
    "Viscosity (Liquid)": NaN,
    "Themal Conductivity (Gas, Low P)": NaN,
    "Themal Conductivity (Liquid)": NaN,
    "Surface Tension": NaN,
    "Partial Molar Volume (VOLP)": NaN,
    "Solubility Parameters (SOLP)": "1.447179E+04 (J/cm^3)^0.5",
    "SRK accentric factor (WSRK)": NaN,
    "COSTALD Characteristic Volume (VSTAR)": NaN,
    "Rackett parameter (ZRA)": NaN,
    "Aniline Point (ANP)": NaN,
    "H(formation,ideal gas)at 25 C": "-4.940000E+05 kJ/kg-mol",
    "G(formation,ideal gas) at 25 C": "-4.365000E+05 kJ/kg-mol",
    "Heat of Combustion, Gross form (HCB1)": NaN,
    "Heat of Combustion, Net form (HCB2)": NaN,
    "Van der Waals Volume (VDWV)": NaN,
    "Van der Waals Area (VDWA)": NaN,
    "UNIQUAC Ri Parameter (RI)": NaN,
    "UNIQUAC Qi Parameter (QI)": NaN,
    "Dipole Moment (DM)": "2.300000E+00 debye",
    "Radius of Gyration (GYRAD)": NaN,
    "Liquid Density (DENL)": "1.532163E-02 g-mol/cm^3",
    "Temperature of DENL (TDENL)": "2.470000E+02 K",
    "Heat of Vaporizaiton (HVAP)": "2.133800E+04 kJ/kg-mol",
    "Temperature of HVAP (THVAP)": "2.472000E+02 K",
    "Surface Tension (SRF)": "1.125000E+01 dyn/cm",
    "Temperature of SRF (TSRF)": "2.932000E+02 K",
    "Dielectric Constant (DIEL)": NaN,
    "Temperature of DIEL (TDIEL)": NaN,
    "Refractive Index (RFI)": NaN,
    "Temperature of RFI (TRFI)": NaN,
    "Lower Flammability Limit(FLL)": NaN,
    "Upper Flammability Limit(FLU)": NaN,
    "Flash Point (Open Cup Method)": NaN,
    "Flash Point (Closed Cup Method)": NaN,
    "Autoignition Temperature (AIGT)": NaN,
    "NFPA Rating (Health)": NaN,
    "NFPA Rating (Fire)": NaN,
    "NFPA Rating (Safety)": NaN,
    "Class": "Halogenated Derivatives",
    "Subclass": "Halogenated Paraffins",
    "SMILES": "CC(F)F"
}