{
    "ID": "1577",
    "Name": "BROMOETHANE",
    "Synonyms": "ETHYL BROMIDE, BROMIC ETHER",
    "CAS No.": "74-96-4",
    "Formula": "C2H5Br",
    "Molecular Wt. (WT)": "1.08966E+02",
    "Normal Boiling Point Temp. (TB)": "3.11600E+02 K",
    "Freezing Point Temp. (TF)": "1.54500E+02 K",
    "Triple Point Temp. (TT)": NaN,
    "Triple Point Press. (PT)": NaN,
    "Critical Temperature. (TC)": "5.03900E+02 K",
    "Critical Pressure (PC)": "6.23000E+03 kPa",
    "Critical Volume (VC)": "2.15000E-01 m^3/kg-mol",
    "Critical Compressibility (ZC)": "3.19702E-01",
    "Accentric Factor (ACCF)": "2.29000E-01",
    "Vapor Pressure": {
        "Equation Name": "KDB Correlation Equation",
        "Equation": "ln(Pvp) = A*ln(T) + B/T + C + D*T^2 where Pvp in kPa, T in K",
        "Coefficient A": "-1.030988E+01",
        "Coefficient B": "-5.797689E+03",
        "Coefficient C": "8.121488E+01",
        "Coefficient D": "1.244219E-05",
        "Coefficient E": NaN,
        "Coefficient F": NaN,
        "Coefficient G": NaN,
        "T range, from": "154.55 K",
        "T range, to": "503.80 K"
    },
    "Heat Capacity (Ideal Gas)": {
        "Equation Name": "Polynomial Equation",
        "Equation": "Cp = A + B*T + C*T^2 + D*T^3 + E*T^4  where Cp in kJ/kg-mol , T in K",
        "Coefficient A": "6.657000E+00",
        "Coefficient B": "2.348000E-01",
        "Coefficient C": "-1.472000E-04",
        "Coefficient D": "3.804E-08",
        "Coefficient E": "0",
        "Coefficient F": NaN,
        "Coefficient G": NaN,
        "T range, from": NaN,
        "T range, to": NaN
    },
    "Heat Capacity (Liquid)": NaN,
    "Viscosity (Gas, Low P)": NaN,
    "Viscosity (Liquid)": {
        "Equation Name": "Andrade Equation",
        "Equation": "ln (VISL) = A + B/ T  where T in K and VISL in cP.",
        "Coefficient A": "-3.859",
        "Coefficient B": "851.5001",
        "Coefficient C": "0",
        "Coefficient D": "0",
        "Coefficient E": NaN,
        "Coefficient F": NaN,
        "Coefficient G": NaN,
        "T range, from": "173.15 K",
        "T range, to": "323.15 K"
    },
    "Themal Conductivity (Gas, Low P)": NaN,
    "Themal Conductivity (Liquid)": NaN,
    "Surface Tension": NaN,
    "Partial Molar Volume (VOLP)": "7.513000E-02 m^3/kg-mol",
    "Solubility Parameters (SOLP)": "1.803911E+04 (J/cm^3)^0.5",
    "SRK accentric factor (WSRK)": "2.266000E-01",
    "COSTALD Characteristic Volume (VSTAR)": "2.064000E-01 m^3/kg-mol",
    "Rackett parameter (ZRA)": "2.896000E-01",
    "Aniline Point (ANP)": NaN,
    "H(formation,ideal gas)at 25 C": "-6.406000E+04 kJ/kg-mol",
    "G(formation,ideal gas) at 25 C": "-2.633000E+04 kJ/kg-mol",
    "Heat of Combustion, Gross form (HCB1)": NaN,
    "Heat of Combustion, Net form (HCB2)": NaN,
    "Van der Waals Volume (VDWV)": NaN,
    "Van der Waals Area (VDWA)": NaN,
    "UNIQUAC Ri Parameter (RI)": "2.520000E+00",
    "UNIQUAC Qi Parameter (QI)": "2.220000E+00",
    "Dipole Moment (DM)": "2.000000E+00 debye",
    "Radius of Gyration (GYRAD)": NaN,
    "Liquid Density (DENL)": "1.331614E-02 g-mol/cm^3",
    "Temperature of DENL (TDENL)": "2.980000E+02 K",
    "Heat of Vaporizaiton (HVAP)": "2.648500E+04 kJ/kg-mol",
    "Temperature of HVAP (THVAP)": "3.117000E+02 K",
    "Surface Tension (SRF)": "2.420000E+01 dyn/cm",
    "Temperature of SRF (TSRF)": "2.932000E+02 K",
    "Dielectric Constant (DIEL)": NaN,
    "Temperature of DIEL (TDIEL)": NaN,
    "Refractive Index (RFI)": NaN,
    "Temperature of RFI (TRFI)": NaN,
    "Lower Flammability Limit(FLL)": NaN,
    "Upper Flammability Limit(FLU)": NaN,
    "Flash Point (Open Cup Method)": NaN,
    "Flash Point (Closed Cup Method)": NaN,
    "Autoignition Temperature (AIGT)": NaN,
    "NFPA Rating (Health)": 2.0,
    "NFPA Rating (Fire)": 3.0,
    "NFPA Rating (Safety)": NaN,
    "Class": "Halogenated Derivatives",
    "Subclass": "Halogenated Paraffins",
    "SMILES": "CCBr"
}