{
    "ID": "1578",
    "Name": "CHLOROETHANE",
    "Synonyms": "ETHYL CHLORIDE, AETHYLIS CHLORIDUM, CHLORENE",
    "CAS No.": "75-00-3",
    "Formula": "C2H5Cl",
    "Molecular Wt. (WT)": "6.45145E+01",
    "Normal Boiling Point Temp. (TB)": "2.86200E+02 K",
    "Freezing Point Temp. (TF)": "1.34400E+02 K",
    "Triple Point Temp. (TT)": NaN,
    "Triple Point Press. (PT)": NaN,
    "Critical Temperature. (TC)": "4.60400E+02 K",
    "Critical Pressure (PC)": "5.30000E+03 kPa",
    "Critical Volume (VC)": "1.99000E-01 m^3/kg-mol",
    "Critical Compressibility (ZC)": "2.75522E-01",
    "Accentric Factor (ACCF)": "1.91000E-01",
    "Vapor Pressure": {
        "Equation Name": "KDB Correlation Equation",
        "Equation": "ln(Pvp) = A*ln(T) + B/T + C + D*T^2 where Pvp in kPa, T in K",
        "Coefficient A": "-7.419626E+00",
        "Coefficient B": "-4.772390E+03",
        "Coefficient C": "6.257032E+01",
        "Coefficient D": "8.848451E-06",
        "Coefficient E": NaN,
        "Coefficient F": NaN,
        "Coefficient G": NaN,
        "T range, from": "136.75 K",
        "T range, to": "460.35 K"
    },
    "Heat Capacity (Ideal Gas)": {
        "Equation Name": "Polynomial Equation",
        "Equation": "Cp = A + B*T + C*T^2 + D*T^3 + E*T^4  where Cp in kJ/kg-mol , T in K",
        "Coefficient A": "-5.527000E-01",
        "Coefficient B": "2.606000E-01",
        "Coefficient C": "-1.840000E-04",
        "Coefficient D": "5.548E-08",
        "Coefficient E": "0",
        "Coefficient F": NaN,
        "Coefficient G": NaN,
        "T range, from": NaN,
        "T range, to": NaN
    },
    "Heat Capacity (Liquid)": NaN,
    "Viscosity (Gas, Low P)": NaN,
    "Viscosity (Liquid)": {
        "Equation Name": "Andrade Equation",
        "Equation": "ln (VISL) = A + B/ T  where T in K and VISL in cP.",
        "Coefficient A": "-3.873",
        "Coefficient B": "739",
        "Coefficient C": "0",
        "Coefficient D": "0",
        "Coefficient E": NaN,
        "Coefficient F": NaN,
        "Coefficient G": NaN,
        "T range, from": "253.15 K",
        "T range, to": "323.15 K"
    },
    "Themal Conductivity (Gas, Low P)": NaN,
    "Themal Conductivity (Liquid)": NaN,
    "Surface Tension": NaN,
    "Partial Molar Volume (VOLP)": "7.035000E-02 m^3/kg-mol",
    "Solubility Parameters (SOLP)": "1.743160E+04 (J/cm^3)^0.5",
    "SRK accentric factor (WSRK)": "1.880000E-01",
    "COSTALD Characteristic Volume (VSTAR)": "1.858000E-01 m^3/kg-mol",
    "Rackett parameter (ZRA)": "2.654000E-01",
    "Aniline Point (ANP)": NaN,
    "H(formation,ideal gas)at 25 C": "-1.118000E+05 kJ/kg-mol",
    "G(formation,ideal gas) at 25 C": "-6.004000E+04 kJ/kg-mol",
    "Heat of Combustion, Gross form (HCB1)": NaN,
    "Heat of Combustion, Net form (HCB2)": NaN,
    "Van der Waals Volume (VDWV)": NaN,
    "Van der Waals Area (VDWA)": NaN,
    "UNIQUAC Ri Parameter (RI)": "2.366500E+00",
    "UNIQUAC Qi Parameter (QI)": "2.112000E+00",
    "Dipole Moment (DM)": "2.000000E+00 debye",
    "Radius of Gyration (GYRAD)": NaN,
    "Liquid Density (DENL)": "1.388835E-02 g-mol/cm^3",
    "Temperature of DENL (TDENL)": "2.930000E+02 K",
    "Heat of Vaporizaiton (HVAP)": "2.468600E+04 kJ/kg-mol",
    "Temperature of HVAP (THVAP)": "2.855000E+02 K",
    "Surface Tension (SRF)": "2.064000E+01 dyn/cm",
    "Temperature of SRF (TSRF)": "2.832000E+02 K",
    "Dielectric Constant (DIEL)": NaN,
    "Temperature of DIEL (TDIEL)": NaN,
    "Refractive Index (RFI)": NaN,
    "Temperature of RFI (TRFI)": NaN,
    "Lower Flammability Limit(FLL)": "3.600000E+00 % in Air",
    "Upper Flammability Limit(FLU)": "1.200000E+01 % in Air",
    "Flash Point (Open Cup Method)": "2.231500E+02 K",
    "Flash Point (Closed Cup Method)": "2.303722E+02 K",
    "Autoignition Temperature (AIGT)": "7.920389E+02 K",
    "NFPA Rating (Health)": "2",
    "NFPA Rating (Fire)": "4",
    "NFPA Rating (Safety)": NaN,
    "Class": "Halogenated Derivatives",
    "Subclass": "Halogenated Paraffins",
    "SMILES": "CCCl"
}