{
    "ID": "1579",
    "Name": "FLUOROETHANE",
    "Synonyms": "ETHYL FLUORIDE, REFRIGERANT-161",
    "CAS No.": "353-36-6",
    "Formula": "C2H5F",
    "Molecular Wt. (WT)": "4.80599E+01",
    "Normal Boiling Point Temp. (TB)": "2.35500E+02 K",
    "Freezing Point Temp. (TF)": "1.29900E+02 K",
    "Triple Point Temp. (TT)": NaN,
    "Triple Point Press. (PT)": NaN,
    "Critical Temperature. (TC)": "3.75310E+02 K",
    "Critical Pressure (PC)": "5.02800E+03 kPa",
    "Critical Volume (VC)": "1.69000E-01 m^3/kg-mol",
    "Critical Compressibility (ZC)": "2.72305E-01",
    "Accentric Factor (ACCF)": "2.15000E-01",
    "Vapor Pressure": {
        "Equation Name": "KDB Correlation Equation",
        "Equation": "ln(Pvp) = A*ln(T) + B/T + C + D*T^2 where Pvp in kPa, T in K",
        "Coefficient A": "-4.572627E+00",
        "Coefficient B": "-3.389217E+03",
        "Coefficient C": "4.353218E+01",
        "Coefficient D": "7.958308E-06",
        "Coefficient E": NaN,
        "Coefficient F": NaN,
        "Coefficient G": NaN,
        "T range, from": "129.95 K",
        "T range, to": "375.31 K"
    },
    "Heat Capacity (Ideal Gas)": {
        "Equation Name": "Polynomial Equation",
        "Equation": "Cp = A + B*T + C*T^2 + D*T^3 + E*T^4  where Cp in kJ/kg-mol , T in K",
        "Coefficient A": "4.346000E+00",
        "Coefficient B": "2.180000E-01",
        "Coefficient C": "-1.166000E-04",
        "Coefficient D": "2.41E-08",
        "Coefficient E": "0",
        "Coefficient F": NaN,
        "Coefficient G": NaN,
        "T range, from": NaN,
        "T range, to": NaN
    },
    "Heat Capacity (Liquid)": NaN,
    "Viscosity (Gas, Low P)": NaN,
    "Viscosity (Liquid)": NaN,
    "Themal Conductivity (Gas, Low P)": NaN,
    "Themal Conductivity (Liquid)": NaN,
    "Surface Tension": NaN,
    "Partial Molar Volume (VOLP)": NaN,
    "Solubility Parameters (SOLP)": "1.376610E+04 (J/cm^3)^0.5",
    "SRK accentric factor (WSRK)": "2.150000E-01",
    "COSTALD Characteristic Volume (VSTAR)": "1.577000E-01 m^3/kg-mol",
    "Rackett parameter (ZRA)": NaN,
    "Aniline Point (ANP)": NaN,
    "H(formation,ideal gas)at 25 C": "-2.617000E+05 kJ/kg-mol",
    "G(formation,ideal gas) at 25 C": "-2.097000E+05 kJ/kg-mol",
    "Heat of Combustion, Gross form (HCB1)": NaN,
    "Heat of Combustion, Net form (HCB2)": NaN,
    "Van der Waals Volume (VDWV)": NaN,
    "Van der Waals Area (VDWA)": NaN,
    "UNIQUAC Ri Parameter (RI)": NaN,
    "UNIQUAC Qi Parameter (QI)": NaN,
    "Dipole Moment (DM)": "2.000000E+00 debye",
    "Radius of Gyration (GYRAD)": NaN,
    "Liquid Density (DENL)": NaN,
    "Temperature of DENL (TDENL)": NaN,
    "Heat of Vaporizaiton (HVAP)": "2.309600E+04 kJ/kg-mol",
    "Temperature of HVAP (THVAP)": "2.355000E+02 K",
    "Surface Tension (SRF)": NaN,
    "Temperature of SRF (TSRF)": NaN,
    "Dielectric Constant (DIEL)": NaN,
    "Temperature of DIEL (TDIEL)": NaN,
    "Refractive Index (RFI)": NaN,
    "Temperature of RFI (TRFI)": NaN,
    "Lower Flammability Limit(FLL)": NaN,
    "Upper Flammability Limit(FLU)": NaN,
    "Flash Point (Open Cup Method)": NaN,
    "Flash Point (Closed Cup Method)": NaN,
    "Autoignition Temperature (AIGT)": NaN,
    "NFPA Rating (Health)": NaN,
    "NFPA Rating (Fire)": NaN,
    "NFPA Rating (Safety)": NaN,
    "Class": "Halogenated Derivatives",
    "Subclass": "Halogenated Paraffins",
    "SMILES": "CCF"
}