{
    "ID": "1584",
    "Name": "1,2,3-TRICHLOROPROPANE",
    "Synonyms": "ALLYL TRICHLORIDE, GLYCEROL TRICHLOROHYDRIN",
    "CAS No.": "96-18-4",
    "Formula": "C3H5Cl3",
    "Molecular Wt. (WT)": "1.47432E+02",
    "Normal Boiling Point Temp. (TB)": "4.29000E+02 K",
    "Freezing Point Temp. (TF)": "2.58500E+02 K",
    "Triple Point Temp. (TT)": NaN,
    "Triple Point Press. (PT)": NaN,
    "Critical Temperature. (TC)": "6.51000E+02 K",
    "Critical Pressure (PC)": "3.95000E+03 kPa",
    "Critical Volume (VC)": "3.48000E-01 m^3/kg-mol",
    "Critical Compressibility (ZC)": "2.53956E-01",
    "Accentric Factor (ACCF)": "3.10000E-01",
    "Vapor Pressure": {
        "Equation Name": "KDB Correlation Equation",
        "Equation": "ln(Pvp) = A*ln(T) + B/T + C + D*T^2 where Pvp in kPa, T in K",
        "Coefficient A": "-6.655481E+00",
        "Coefficient B": "-7.355509E+03",
        "Coefficient C": "6.166777E+01",
        "Coefficient D": "2.276058E-06",
        "Coefficient E": NaN,
        "Coefficient F": NaN,
        "Coefficient G": NaN,
        "T range, from": "258.45 K",
        "T range, to": "652.00 K"
    },
    "Heat Capacity (Ideal Gas)": {
        "Equation Name": "Polynomial Equation",
        "Equation": "Cp = A + B*T + C*T^2 + D*T^3 + E*T^4  where Cp in kJ/kg-mol , T in K",
        "Coefficient A": "2.688000E+01",
        "Coefficient B": "3.622000E-01",
        "Coefficient C": "-2.787000E-04",
        "Coefficient D": "8.788E-08",
        "Coefficient E": "0",
        "Coefficient F": NaN,
        "Coefficient G": NaN,
        "T range, from": NaN,
        "T range, to": NaN
    },
    "Heat Capacity (Liquid)": NaN,
    "Viscosity (Gas, Low P)": NaN,
    "Viscosity (Liquid)": NaN,
    "Themal Conductivity (Gas, Low P)": NaN,
    "Themal Conductivity (Liquid)": NaN,
    "Surface Tension": NaN,
    "Partial Molar Volume (VOLP)": "1.061400E-01 m^3/kg-mol",
    "Solubility Parameters (SOLP)": "1.951186E+04 (J/cm^3)^0.5",
    "SRK accentric factor (WSRK)": "3.282000E-01",
    "COSTALD Characteristic Volume (VSTAR)": "3.279000E-01 m^3/kg-mol",
    "Rackett parameter (ZRA)": NaN,
    "Aniline Point (ANP)": NaN,
    "H(formation,ideal gas)at 25 C": "-1.859000E+05 kJ/kg-mol",
    "G(formation,ideal gas) at 25 C": "-9.785000E+04 kJ/kg-mol",
    "Heat of Combustion, Gross form (HCB1)": NaN,
    "Heat of Combustion, Net form (HCB2)": NaN,
    "Van der Waals Volume (VDWV)": NaN,
    "Van der Waals Area (VDWA)": NaN,
    "UNIQUAC Ri Parameter (RI)": "4.168800E+00",
    "UNIQUAC Qi Parameter (QI)": "3.480000E+00",
    "Dipole Moment (DM)": "1.600000E+00 debye",
    "Radius of Gyration (GYRAD)": NaN,
    "Liquid Density (DENL)": "9.421324E-03 g-mol/cm^3",
    "Temperature of DENL (TDENL)": "2.930000E+02 K",
    "Heat of Vaporizaiton (HVAP)": "3.840900E+04 kJ/kg-mol",
    "Temperature of HVAP (THVAP)": "4.290000E+02 K",
    "Surface Tension (SRF)": NaN,
    "Temperature of SRF (TSRF)": NaN,
    "Dielectric Constant (DIEL)": NaN,
    "Temperature of DIEL (TDIEL)": NaN,
    "Refractive Index (RFI)": NaN,
    "Temperature of RFI (TRFI)": NaN,
    "Lower Flammability Limit(FLL)": NaN,
    "Upper Flammability Limit(FLU)": NaN,
    "Flash Point (Open Cup Method)": NaN,
    "Flash Point (Closed Cup Method)": NaN,
    "Autoignition Temperature (AIGT)": NaN,
    "NFPA Rating (Health)": 3.0,
    "NFPA Rating (Fire)": 2.0,
    "NFPA Rating (Safety)": NaN,
    "Class": "Halogenated Derivatives",
    "Subclass": "Halogenated Paraffins",
    "SMILES": "C(C(CCl)Cl)Cl"
}