{
    "ID": "1588",
    "Name": "1,2-DICHLOROPROPANE",
    "Synonyms": "PROPYLENE DICHLORIDE",
    "CAS No.": "78-87-5",
    "Formula": "C3H6Cl2",
    "Molecular Wt. (WT)": "1.12986E+02",
    "Normal Boiling Point Temp. (TB)": "3.69500E+02 K",
    "Freezing Point Temp. (TF)": "1.72700E+02 K",
    "Triple Point Temp. (TT)": NaN,
    "Triple Point Press. (PT)": NaN,
    "Critical Temperature. (TC)": "5.77000E+02 K",
    "Critical Pressure (PC)": "4.45000E+03 kPa",
    "Critical Volume (VC)": "2.26000E-01 m^3/kg-mol",
    "Critical Compressibility (ZC)": "2.09631E-01",
    "Accentric Factor (ACCF)": "2.40000E-01",
    "Vapor Pressure": {
        "Equation Name": "KDB Correlation Equation",
        "Equation": "ln(Pvp) = A*ln(T) + B/T + C + D*T^2 where Pvp in kPa, T in K",
        "Coefficient A": "-6.379680E+00",
        "Coefficient B": "-5.980185E+03",
        "Coefficient C": "5.796983E+01",
        "Coefficient D": "4.071898E-06",
        "Coefficient E": NaN,
        "Coefficient F": NaN,
        "Coefficient G": NaN,
        "T range, from": "172.71 K",
        "T range, to": "577.00 K"
    },
    "Heat Capacity (Ideal Gas)": {
        "Equation Name": "Polynomial Equation",
        "Equation": "Cp = A + B*T + C*T^2 + D*T^3 + E*T^4  where Cp in kJ/kg-mol , T in K",
        "Coefficient A": "1.045000E+01",
        "Coefficient B": "3.655000E-01",
        "Coefficient C": "-2.604000E-04",
        "Coefficient D": "7.741E-08",
        "Coefficient E": "0",
        "Coefficient F": NaN,
        "Coefficient G": NaN,
        "T range, from": NaN,
        "T range, to": NaN
    },
    "Heat Capacity (Liquid)": NaN,
    "Viscosity (Gas, Low P)": NaN,
    "Viscosity (Liquid)": NaN,
    "Themal Conductivity (Gas, Low P)": NaN,
    "Themal Conductivity (Liquid)": NaN,
    "Surface Tension": NaN,
    "Partial Molar Volume (VOLP)": "9.774000E-02 m^3/kg-mol",
    "Solubility Parameters (SOLP)": "1.815980E+04 (J/cm^3)^0.5",
    "SRK accentric factor (WSRK)": NaN,
    "COSTALD Characteristic Volume (VSTAR)": NaN,
    "Rackett parameter (ZRA)": NaN,
    "Aniline Point (ANP)": NaN,
    "H(formation,ideal gas)at 25 C": "-1.660000E+05 kJ/kg-mol",
    "G(formation,ideal gas) at 25 C": "-8.314999E+04 kJ/kg-mol",
    "Heat of Combustion, Gross form (HCB1)": NaN,
    "Heat of Combustion, Net form (HCB2)": NaN,
    "Van der Waals Volume (VDWV)": NaN,
    "Van der Waals Area (VDWA)": NaN,
    "UNIQUAC Ri Parameter (RI)": "3.604500E+00",
    "UNIQUAC Qi Parameter (QI)": "3.064000E+00",
    "Dipole Moment (DM)": "1.900000E+00 debye",
    "Radius of Gyration (GYRAD)": NaN,
    "Liquid Density (DENL)": "1.017822E-02 g-mol/cm^3",
    "Temperature of DENL (TDENL)": "2.930000E+02 K",
    "Heat of Vaporizaiton (HVAP)": "3.138000E+04 kJ/kg-mol",
    "Temperature of HVAP (THVAP)": "3.695000E+02 K",
    "Surface Tension (SRF)": "2.894000E+01 dyn/cm",
    "Temperature of SRF (TSRF)": "2.932000E+02 K",
    "Dielectric Constant (DIEL)": NaN,
    "Temperature of DIEL (TDIEL)": NaN,
    "Refractive Index (RFI)": NaN,
    "Temperature of RFI (TRFI)": NaN,
    "Lower Flammability Limit(FLL)": NaN,
    "Upper Flammability Limit(FLU)": NaN,
    "Flash Point (Open Cup Method)": NaN,
    "Flash Point (Closed Cup Method)": NaN,
    "Autoignition Temperature (AIGT)": NaN,
    "NFPA Rating (Health)": NaN,
    "NFPA Rating (Fire)": NaN,
    "NFPA Rating (Safety)": NaN,
    "Class": "Halogenated Derivatives",
    "Subclass": "Halogenated Paraffins",
    "SMILES": "CC(CCl)Cl"
}