{
    "ID": "1594",
    "Name": "1-CHLOROPROPANE",
    "Synonyms": "PROPYL CHLORIDE",
    "CAS No.": "540-54-5",
    "Formula": "C3H7Cl",
    "Molecular Wt. (WT)": "7.85413E+01",
    "Normal Boiling Point Temp. (TB)": "3.19600E+02 K",
    "Freezing Point Temp. (TF)": "1.50300E+02 K",
    "Triple Point Temp. (TT)": NaN,
    "Triple Point Press. (PT)": NaN,
    "Critical Temperature. (TC)": "5.03000E+02 K",
    "Critical Pressure (PC)": "4.58000E+03 kPa",
    "Critical Volume (VC)": "2.54000E-01 m^3/kg-mol",
    "Critical Compressibility (ZC)": "2.78160E-01",
    "Accentric Factor (ACCF)": "2.35000E-01",
    "Vapor Pressure": {
        "Equation Name": "KDB Correlation Equation",
        "Equation": "ln(Pvp) = A*ln(T) + B/T + C + D*T^2 where Pvp in kPa, T in K",
        "Coefficient A": "-8.615298E+00",
        "Coefficient B": "-5.689897E+03",
        "Coefficient C": "7.128030E+01",
        "Coefficient D": "8.078675E-06",
        "Coefficient E": NaN,
        "Coefficient F": NaN,
        "Coefficient G": NaN,
        "T range, from": "150.35 K",
        "T range, to": "503.15 K"
    },
    "Heat Capacity (Ideal Gas)": {
        "Equation Name": "Polynomial Equation",
        "Equation": "Cp = A + B*T + C*T^2 + D*T^3 + E*T^4  where Cp in kJ/kg-mol , T in K",
        "Coefficient A": "-3.345000E+00",
        "Coefficient B": "3.626000E-01",
        "Coefficient C": "-2.508000E-04",
        "Coefficient D": "7.448E-08",
        "Coefficient E": "0",
        "Coefficient F": NaN,
        "Coefficient G": NaN,
        "T range, from": NaN,
        "T range, to": NaN
    },
    "Heat Capacity (Liquid)": NaN,
    "Viscosity (Gas, Low P)": NaN,
    "Viscosity (Liquid)": {
        "Equation Name": "Andrade Equation",
        "Equation": "ln (VISL) = A + B/ T  where T in K and VISL in cP.",
        "Coefficient A": "-4.014",
        "Coefficient B": "862.9",
        "Coefficient C": "0",
        "Coefficient D": "0",
        "Coefficient E": NaN,
        "Coefficient F": NaN,
        "Coefficient G": NaN,
        "T range, from": "273.15 K",
        "T range, to": "323.15 K"
    },
    "Themal Conductivity (Gas, Low P)": NaN,
    "Themal Conductivity (Liquid)": NaN,
    "Surface Tension": NaN,
    "Partial Molar Volume (VOLP)": "8.875000E-02 m^3/kg-mol",
    "Solubility Parameters (SOLP)": NaN,
    "SRK accentric factor (WSRK)": "2.263000E-01",
    "COSTALD Characteristic Volume (VSTAR)": "2.434000E-01 m^3/kg-mol",
    "Rackett parameter (ZRA)": NaN,
    "Aniline Point (ANP)": NaN,
    "H(formation,ideal gas)at 25 C": "-1.302000E+05 kJ/kg-mol",
    "G(formation,ideal gas) at 25 C": "-5.070000E+04 kJ/kg-mol",
    "Heat of Combustion, Gross form (HCB1)": NaN,
    "Heat of Combustion, Net form (HCB2)": NaN,
    "Van der Waals Volume (VDWV)": NaN,
    "Van der Waals Area (VDWA)": NaN,
    "UNIQUAC Ri Parameter (RI)": "3.040900E+00",
    "UNIQUAC Qi Parameter (QI)": "2.652000E+00",
    "Dipole Moment (DM)": "2.000000E+00 debye",
    "Radius of Gyration (GYRAD)": NaN,
    "Liquid Density (DENL)": "1.134435E-02 g-mol/cm^3",
    "Temperature of DENL (TDENL)": "2.930000E+02 K",
    "Heat of Vaporizaiton (HVAP)": "2.723800E+04 kJ/kg-mol",
    "Temperature of HVAP (THVAP)": "3.197000E+02 K",
    "Surface Tension (SRF)": "2.192000E+01 dyn/cm",
    "Temperature of SRF (TSRF)": "2.932000E+02 K",
    "Dielectric Constant (DIEL)": NaN,
    "Temperature of DIEL (TDIEL)": NaN,
    "Refractive Index (RFI)": NaN,
    "Temperature of RFI (TRFI)": NaN,
    "Lower Flammability Limit(FLL)": NaN,
    "Upper Flammability Limit(FLU)": NaN,
    "Flash Point (Open Cup Method)": NaN,
    "Flash Point (Closed Cup Method)": NaN,
    "Autoignition Temperature (AIGT)": NaN,
    "NFPA Rating (Health)": 2.0,
    "NFPA Rating (Fire)": 3.0,
    "NFPA Rating (Safety)": NaN,
    "Class": "Halogenated Derivatives",
    "Subclass": "Halogenated Paraffins",
    "SMILES": "CCCCl"
}