{
    "ID": "1595",
    "Name": "2-CHLOROPROPANE",
    "Synonyms": "ISOPROPYL CHLORIDE, SEC-PROPYL CHLORIDE, CHLORODIMETHYLMETHANE",
    "CAS No.": "75-29-6",
    "Formula": "C3H7Cl",
    "Molecular Wt. (WT)": "7.85413E+01",
    "Normal Boiling Point Temp. (TB)": "3.08000E+02 K",
    "Freezing Point Temp. (TF)": "1.56000E+02 K",
    "Triple Point Temp. (TT)": NaN,
    "Triple Point Press. (PT)": NaN,
    "Critical Temperature. (TC)": "4.85000E+02 K",
    "Critical Pressure (PC)": "4.72000E+03 kPa",
    "Critical Volume (VC)": "2.30000E-01 m^3/kg-mol",
    "Critical Compressibility (ZC)": "2.69210E-01",
    "Accentric Factor (ACCF)": "2.32000E-01",
    "Vapor Pressure": {
        "Equation Name": "KDB Correlation Equation",
        "Equation": "ln(Pvp) = A*ln(T) + B/T + C + D*T^2 where Pvp in kPa, T in K",
        "Coefficient A": "-2.822601E+01",
        "Coefficient B": "-9.553030E+03",
        "Coefficient C": "1.937598E+02",
        "Coefficient D": "3.795102E-05",
        "Coefficient E": NaN,
        "Coefficient F": NaN,
        "Coefficient G": NaN,
        "T range, from": "155.97 K",
        "T range, to": "489.00 K"
    },
    "Heat Capacity (Ideal Gas)": {
        "Equation Name": "Polynomial Equation",
        "Equation": "Cp = A + B*T + C*T^2 + D*T^3 + E*T^4  where Cp in kJ/kg-mol , T in K",
        "Coefficient A": "1.842000E+00",
        "Coefficient B": "3.488000E-01",
        "Coefficient C": "-2.244000E-04",
        "Coefficient D": "5.862E-08",
        "Coefficient E": "0",
        "Coefficient F": NaN,
        "Coefficient G": NaN,
        "T range, from": NaN,
        "T range, to": NaN
    },
    "Heat Capacity (Liquid)": NaN,
    "Viscosity (Gas, Low P)": NaN,
    "Viscosity (Liquid)": NaN,
    "Themal Conductivity (Gas, Low P)": NaN,
    "Themal Conductivity (Liquid)": NaN,
    "Surface Tension": NaN,
    "Partial Molar Volume (VOLP)": "9.172000E-02 m^3/kg-mol",
    "Solubility Parameters (SOLP)": NaN,
    "SRK accentric factor (WSRK)": "2.474000E-01",
    "COSTALD Characteristic Volume (VSTAR)": "2.494000E-01 m^3/kg-mol",
    "Rackett parameter (ZRA)": NaN,
    "Aniline Point (ANP)": NaN,
    "H(formation,ideal gas)at 25 C": "-1.465000E+05 kJ/kg-mol",
    "G(formation,ideal gas) at 25 C": "-6.255000E+04 kJ/kg-mol",
    "Heat of Combustion, Gross form (HCB1)": NaN,
    "Heat of Combustion, Net form (HCB2)": NaN,
    "Van der Waals Volume (VDWV)": NaN,
    "Van der Waals Area (VDWA)": NaN,
    "UNIQUAC Ri Parameter (RI)": "3.040200E+00",
    "UNIQUAC Qi Parameter (QI)": "2.648000E+00",
    "Dipole Moment (DM)": "2.100000E+00 debye",
    "Radius of Gyration (GYRAD)": NaN,
    "Liquid Density (DENL)": "1.097512E-02 g-mol/cm^3",
    "Temperature of DENL (TDENL)": "2.930000E+02 K",
    "Heat of Vaporizaiton (HVAP)": "2.627600E+04 kJ/kg-mol",
    "Temperature of HVAP (THVAP)": "3.080000E+02 K",
    "Surface Tension (SRF)": "1.960000E+01 dyn/cm",
    "Temperature of SRF (TSRF)": "2.932000E+02 K",
    "Dielectric Constant (DIEL)": NaN,
    "Temperature of DIEL (TDIEL)": NaN,
    "Refractive Index (RFI)": NaN,
    "Temperature of RFI (TRFI)": NaN,
    "Lower Flammability Limit(FLL)": NaN,
    "Upper Flammability Limit(FLU)": NaN,
    "Flash Point (Open Cup Method)": NaN,
    "Flash Point (Closed Cup Method)": NaN,
    "Autoignition Temperature (AIGT)": NaN,
    "NFPA Rating (Health)": 2.0,
    "NFPA Rating (Fire)": 3.0,
    "NFPA Rating (Safety)": 1.0,
    "Class": "Halogenated Derivatives",
    "Subclass": "Halogenated Paraffins",
    "SMILES": "CC(C)Cl"
}