{
    "ID": "16",
    "Name": "N-HEXADECANE",
    "Synonyms": "HEXADECANE, N-CETANE, CETANE",
    "CAS No.": "544-76-3",
    "Formula": "C16H34",
    "Molecular Wt. (WT)": "2.26445E+02",
    "Normal Boiling Point Temp. (TB)": "5.60010E+02 K",
    "Freezing Point Temp. (TF)": "2.91340E+02 K",
    "Triple Point Temp. (TT)": NaN,
    "Triple Point Press. (PT)": NaN,
    "Critical Temperature. (TC)": "7.23000E+02 K",
    "Critical Pressure (PC)": "1.40000E+03 kPa",
    "Critical Volume (VC)": "1.03400E+00 m^3/kg-mol",
    "Critical Compressibility (ZC)": "2.40810E-01",
    "Accentric Factor (ACCF)": "7.42000E-01",
    "Vapor Pressure": {
        "Equation Name": "KDB Correlation Equation",
        "Equation": "ln(Pvp) = A*ln(T) + B/T + C + D*T^2 where Pvp in kPa, T in K",
        "Coefficient A": "-2.059165E+01",
        "Coefficient B": "-1.552894E+04",
        "Coefficient C": "1.601365E+02",
        "Coefficient D": "8.014932E-06",
        "Coefficient E": NaN,
        "Coefficient F": NaN,
        "Coefficient G": NaN,
        "T range, from": "291.32 K",
        "T range, to": "720.60 K"
    },
    "Heat Capacity (Ideal Gas)": {
        "Equation Name": "Polynomial Equation",
        "Equation": "Cp = A + B*T + C*T^2 + D*T^3 + E*T^4  where Cp in kJ/kg-mol , T in K",
        "Coefficient A": "1.788589E+02",
        "Coefficient B": "-3.941710E-02",
        "Coefficient C": "3.581702E-03",
        "Coefficient D": "-4.955487E-06",
        "Coefficient E": "2.080837E-09",
        "Coefficient F": NaN,
        "Coefficient G": NaN,
        "T range, from": NaN,
        "T range, to": NaN
    },
    "Heat Capacity (Liquid)": NaN,
    "Viscosity (Gas, Low P)": NaN,
    "Viscosity (Liquid)": {
        "Equation Name": "Andrade Equation",
        "Equation": "ln (VISL) = A + B/ T  where T in K and VISL in cP.",
        "Coefficient A": "-4.643",
        "Coefficient B": "1700",
        "Coefficient C": "0",
        "Coefficient D": "0",
        "Coefficient E": NaN,
        "Coefficient F": NaN,
        "Coefficient G": NaN,
        "T range, from": "293.15 K",
        "T range, to": "553.15 K"
    },
    "Themal Conductivity (Gas, Low P)": NaN,
    "Themal Conductivity (Liquid)": NaN,
    "Surface Tension": NaN,
    "Partial Molar Volume (VOLP)": "2.928400E-01 m^3/kg-mol",
    "Solubility Parameters (SOLP)": "1.634136E+04 (J/cm^3)^0.5",
    "SRK accentric factor (WSRK)": "7.667000E-01",
    "COSTALD Characteristic Volume (VSTAR)": "1.053900E+00 m^3/kg-mol",
    "Rackett parameter (ZRA)": "2.388000E-01",
    "Aniline Point (ANP)": NaN,
    "H(formation,ideal gas)at 25 C": "-3.736000E+05 kJ/kg-mol",
    "G(formation,ideal gas) at 25 C": "8.373999E+04 kJ/kg-mol",
    "Heat of Combustion, Gross form (HCB1)": NaN,
    "Heat of Combustion, Net form (HCB2)": NaN,
    "Van der Waals Volume (VDWV)": NaN,
    "Van der Waals Area (VDWA)": NaN,
    "UNIQUAC Ri Parameter (RI)": 11.2438,
    "UNIQUAC Qi Parameter (QI)": 9.256,
    "Dipole Moment (DM)": NaN,
    "Radius of Gyration (GYRAD)": 8.318,
    "Liquid Density (DENL)": "3.413639E-03 g-mol/cm^3",
    "Temperature of DENL (TDENL)": "2.930000E+02 K",
    "Heat of Vaporizaiton (HVAP)": "5.121200E+04 kJ/kg-mol",
    "Temperature of HVAP (THVAP)": "5.605000E+02 K",
    "Surface Tension (SRF)": "2.576000E+01 dyn/cm",
    "Temperature of SRF (TSRF)": "3.132000E+02 K",
    "Dielectric Constant (DIEL)": NaN,
    "Temperature of DIEL (TDIEL)": NaN,
    "Refractive Index (RFI)": NaN,
    "Temperature of RFI (TRFI)": NaN,
    "Lower Flammability Limit(FLL)": NaN,
    "Upper Flammability Limit(FLU)": NaN,
    "Flash Point (Open Cup Method)": NaN,
    "Flash Point (Closed Cup Method)": NaN,
    "Autoignition Temperature (AIGT)": NaN,
    "NFPA Rating (Health)": NaN,
    "NFPA Rating (Fire)": 1.0,
    "NFPA Rating (Safety)": NaN,
    "Class": "Paraffinic Hydrocarbons",
    "Subclass": "n-Alkanes",
    "SMILES": "CCCCCCCCCCCCCCCC"
}