{
    "ID": "1608",
    "Name": "1-CHLOROBUTANE",
    "Synonyms": "N-BUTYL CHLORIDE, N-PROPYLCARBINYL CHLORIDE",
    "CAS No.": "109-69-3",
    "Formula": "C4H9Cl",
    "Molecular Wt. (WT)": "9.25681E+01",
    "Normal Boiling Point Temp. (TB)": "3.51600E+02 K",
    "Freezing Point Temp. (TF)": "1.50100E+02 K",
    "Triple Point Temp. (TT)": NaN,
    "Triple Point Press. (PT)": NaN,
    "Critical Temperature. (TC)": "5.42000E+02 K",
    "Critical Pressure (PC)": "3.68000E+03 kPa",
    "Critical Volume (VC)": "3.12000E-01 m^3/kg-mol",
    "Critical Compressibility (ZC)": "2.54781E-01",
    "Accentric Factor (ACCF)": "2.18000E-01",
    "Vapor Pressure": {
        "Equation Name": "KDB Correlation Equation",
        "Equation": "ln(Pvp) = A*ln(T) + B/T + C + D*T^2 where Pvp in kPa, T in K",
        "Coefficient A": "-9.701210E+00",
        "Coefficient B": "-6.567001E+03",
        "Coefficient C": "7.924135E+01",
        "Coefficient D": "7.485165E-06",
        "Coefficient E": NaN,
        "Coefficient F": NaN,
        "Coefficient G": NaN,
        "T range, from": "150.05 K",
        "T range, to": "537.00 K"
    },
    "Heat Capacity (Ideal Gas)": {
        "Equation Name": "Polynomial Equation",
        "Equation": "Cp = A + B*T + C*T^2 + D*T^3 + E*T^4  where Cp in kJ/kg-mol , T in K",
        "Coefficient A": "-2.613000E+00",
        "Coefficient B": "4.497000E-01",
        "Coefficient C": "-2.937000E-04",
        "Coefficient D": "8.081E-08",
        "Coefficient E": "0",
        "Coefficient F": NaN,
        "Coefficient G": NaN,
        "T range, from": NaN,
        "T range, to": NaN
    },
    "Heat Capacity (Liquid)": NaN,
    "Viscosity (Gas, Low P)": NaN,
    "Viscosity (Liquid)": NaN,
    "Themal Conductivity (Gas, Low P)": NaN,
    "Themal Conductivity (Liquid)": NaN,
    "Surface Tension": NaN,
    "Partial Molar Volume (VOLP)": "1.050800E-01 m^3/kg-mol",
    "Solubility Parameters (SOLP)": "1.701842E+04 (J/cm^3)^0.5",
    "SRK accentric factor (WSRK)": "2.265000E-01",
    "COSTALD Characteristic Volume (VSTAR)": "2.969000E-01 m^3/kg-mol",
    "Rackett parameter (ZRA)": NaN,
    "Aniline Point (ANP)": NaN,
    "H(formation,ideal gas)at 25 C": "-1.474000E+05 kJ/kg-mol",
    "G(formation,ideal gas) at 25 C": "-3.881000E+04 kJ/kg-mol",
    "Heat of Combustion, Gross form (HCB1)": NaN,
    "Heat of Combustion, Net form (HCB2)": NaN,
    "Van der Waals Volume (VDWV)": NaN,
    "Van der Waals Area (VDWA)": NaN,
    "UNIQUAC Ri Parameter (RI)": "3.715300E+00",
    "UNIQUAC Qi Parameter (QI)": "3.192000E+00",
    "Dipole Moment (DM)": "2.000000E+00 debye",
    "Radius of Gyration (GYRAD)": NaN,
    "Liquid Density (DENL)": "9.571332E-03 g-mol/cm^3",
    "Temperature of DENL (TDENL)": "2.930000E+02 K",
    "Heat of Vaporizaiton (HVAP)": "2.999900E+04 kJ/kg-mol",
    "Temperature of HVAP (THVAP)": "3.516000E+02 K",
    "Surface Tension (SRF)": "2.374000E+01 dyn/cm",
    "Temperature of SRF (TSRF)": "2.932000E+02 K",
    "Dielectric Constant (DIEL)": NaN,
    "Temperature of DIEL (TDIEL)": NaN,
    "Refractive Index (RFI)": NaN,
    "Temperature of RFI (TRFI)": NaN,
    "Lower Flammability Limit(FLL)": NaN,
    "Upper Flammability Limit(FLU)": NaN,
    "Flash Point (Open Cup Method)": NaN,
    "Flash Point (Closed Cup Method)": NaN,
    "Autoignition Temperature (AIGT)": NaN,
    "NFPA Rating (Health)": 2.0,
    "NFPA Rating (Fire)": 3.0,
    "NFPA Rating (Safety)": NaN,
    "Class": "Halogenated Derivatives",
    "Subclass": "Halogenated Paraffins",
    "SMILES": "CCCCCl"
}