{
    "ID": "1609",
    "Name": "2-CHLOROBUTANE",
    "Synonyms": "SEC-BUTYL CHLORIDE, 1-METHYLPROPYL CHLORIDE",
    "CAS No.": "78-86-4",
    "Formula": "C4H9Cl",
    "Molecular Wt. (WT)": "9.25681E+01",
    "Normal Boiling Point Temp. (TB)": "3.41400E+02 K",
    "Freezing Point Temp. (TF)": "1.41800E+02 K",
    "Triple Point Temp. (TT)": NaN,
    "Triple Point Press. (PT)": NaN,
    "Critical Temperature. (TC)": "5.20600E+02 K",
    "Critical Pressure (PC)": "3.95000E+03 kPa",
    "Critical Volume (VC)": "3.05000E-01 m^3/kg-mol",
    "Critical Compressibility (ZC)": "2.78327E-01",
    "Accentric Factor (ACCF)": "3.00000E-01",
    "Vapor Pressure": {
        "Equation Name": "KDB Correlation Equation",
        "Equation": "ln(Pvp) = A*ln(T) + B/T + C + D*T^2 where Pvp in kPa, T in K",
        "Coefficient A": "-6.533995E+00",
        "Coefficient B": "-5.450189E+03",
        "Coefficient C": "5.800530E+01",
        "Coefficient D": "5.898099E-06",
        "Coefficient E": NaN,
        "Coefficient F": NaN,
        "Coefficient G": NaN,
        "T range, from": "141.85 K",
        "T range, to": "520.60 K"
    },
    "Heat Capacity (Ideal Gas)": {
        "Equation Name": "Polynomial Equation",
        "Equation": "Cp = A + B*T + C*T^2 + D*T^3 + E*T^4  where Cp in kJ/kg-mol , T in K",
        "Coefficient A": "-3.433000E+00",
        "Coefficient B": "4.559000E-01",
        "Coefficient C": "-2.981000E-04",
        "Coefficient D": "8.255999E-08",
        "Coefficient E": "0",
        "Coefficient F": NaN,
        "Coefficient G": NaN,
        "T range, from": NaN,
        "T range, to": NaN
    },
    "Heat Capacity (Liquid)": NaN,
    "Viscosity (Gas, Low P)": NaN,
    "Viscosity (Liquid)": NaN,
    "Themal Conductivity (Gas, Low P)": NaN,
    "Themal Conductivity (Liquid)": NaN,
    "Surface Tension": NaN,
    "Partial Molar Volume (VOLP)": NaN,
    "Solubility Parameters (SOLP)": "1.656636E+04 (J/cm^3)^0.5",
    "SRK accentric factor (WSRK)": "2.920000E-01",
    "COSTALD Characteristic Volume (VSTAR)": "3.019000E-01 m^3/kg-mol",
    "Rackett parameter (ZRA)": NaN,
    "Aniline Point (ANP)": NaN,
    "H(formation,ideal gas)at 25 C": "-1.616000E+05 kJ/kg-mol",
    "G(formation,ideal gas) at 25 C": "-5.351000E+04 kJ/kg-mol",
    "Heat of Combustion, Gross form (HCB1)": NaN,
    "Heat of Combustion, Net form (HCB2)": NaN,
    "Van der Waals Volume (VDWV)": NaN,
    "Van der Waals Area (VDWA)": NaN,
    "UNIQUAC Ri Parameter (RI)": NaN,
    "UNIQUAC Qi Parameter (QI)": NaN,
    "Dipole Moment (DM)": "2.100000E+00 debye",
    "Radius of Gyration (GYRAD)": NaN,
    "Liquid Density (DENL)": "9.430895E-03 g-mol/cm^3",
    "Temperature of DENL (TDENL)": "2.930000E+02 K",
    "Heat of Vaporizaiton (HVAP)": "2.920400E+04 kJ/kg-mol",
    "Temperature of HVAP (THVAP)": "3.412000E+02 K",
    "Surface Tension (SRF)": "2.216000E+01 dyn/cm",
    "Temperature of SRF (TSRF)": "2.932000E+02 K",
    "Dielectric Constant (DIEL)": NaN,
    "Temperature of DIEL (TDIEL)": NaN,
    "Refractive Index (RFI)": NaN,
    "Temperature of RFI (TRFI)": NaN,
    "Lower Flammability Limit(FLL)": NaN,
    "Upper Flammability Limit(FLU)": NaN,
    "Flash Point (Open Cup Method)": NaN,
    "Flash Point (Closed Cup Method)": NaN,
    "Autoignition Temperature (AIGT)": NaN,
    "NFPA Rating (Health)": 2.0,
    "NFPA Rating (Fire)": 3.0,
    "NFPA Rating (Safety)": NaN,
    "Class": "Halogenated Derivatives",
    "Subclass": "Halogenated Paraffins",
    "SMILES": "CCC(C)Cl"
}