{
    "ID": "1610",
    "Name": "TERT-BUTYL CHLORIDE",
    "Synonyms": "TRIMETHYLCHLOROMETHANE, 2-CHLOROISOBUTANE, 2-CHLORO-2-METHYLPROPANE",
    "CAS No.": "507-20-0",
    "Formula": "C4H9Cl",
    "Molecular Wt. (WT)": "9.25681E+01",
    "Normal Boiling Point Temp. (TB)": "3.24000E+02 K",
    "Freezing Point Temp. (TF)": "2.47800E+02 K",
    "Triple Point Temp. (TT)": NaN,
    "Triple Point Press. (PT)": NaN,
    "Critical Temperature. (TC)": "5.07000E+02 K",
    "Critical Pressure (PC)": "3.95000E+03 kPa",
    "Critical Volume (VC)": "2.95000E-01 m^3/kg-mol",
    "Critical Compressibility (ZC)": "2.76423E-01",
    "Accentric Factor (ACCF)": "1.90000E-01",
    "Vapor Pressure": {
        "Equation Name": "KDB Correlation Equation",
        "Equation": "ln(Pvp) = A*ln(T) + B/T + C + D*T^2 where Pvp in kPa, T in K",
        "Coefficient A": "-9.399919E+00",
        "Coefficient B": "-5.867524E+03",
        "Coefficient C": "7.616501E+01",
        "Coefficient D": "8.626991E-06",
        "Coefficient E": NaN,
        "Coefficient F": NaN,
        "Coefficient G": NaN,
        "T range, from": "235.00 K",
        "T range, to": "507.00 K"
    },
    "Heat Capacity (Ideal Gas)": {
        "Equation Name": "Polynomial Equation",
        "Equation": "Cp = A + B*T + C*T^2 + D*T^3 + E*T^4  where Cp in kJ/kg-mol , T in K",
        "Coefficient A": "-3.931000E+00",
        "Coefficient B": "4.652000E-01",
        "Coefficient C": "-2.886000E-04",
        "Coefficient D": "7.870999E-08",
        "Coefficient E": "0",
        "Coefficient F": NaN,
        "Coefficient G": NaN,
        "T range, from": NaN,
        "T range, to": NaN
    },
    "Heat Capacity (Liquid)": NaN,
    "Viscosity (Gas, Low P)": NaN,
    "Viscosity (Liquid)": NaN,
    "Themal Conductivity (Gas, Low P)": NaN,
    "Themal Conductivity (Liquid)": NaN,
    "Surface Tension": NaN,
    "Partial Molar Volume (VOLP)": "1.087400E-01 m^3/kg-mol",
    "Solubility Parameters (SOLP)": "1.542089E+04 (J/cm^3)^0.5",
    "SRK accentric factor (WSRK)": "1.999000E-01",
    "COSTALD Characteristic Volume (VSTAR)": "3.031000E-01 m^3/kg-mol",
    "Rackett parameter (ZRA)": NaN,
    "Aniline Point (ANP)": NaN,
    "H(formation,ideal gas)at 25 C": "-1.834000E+05 kJ/kg-mol",
    "G(formation,ideal gas) at 25 C": "-6.414000E+04 kJ/kg-mol",
    "Heat of Combustion, Gross form (HCB1)": NaN,
    "Heat of Combustion, Net form (HCB2)": NaN,
    "Van der Waals Volume (VDWV)": NaN,
    "Van der Waals Area (VDWA)": NaN,
    "UNIQUAC Ri Parameter (RI)": "3.713900E+00",
    "UNIQUAC Qi Parameter (QI)": "3.268000E+00",
    "Dipole Moment (DM)": "2.100000E+00 debye",
    "Radius of Gyration (GYRAD)": NaN,
    "Liquid Density (DENL)": "9.096006E-03 g-mol/cm^3",
    "Temperature of DENL (TDENL)": "2.930000E+02 K",
    "Heat of Vaporizaiton (HVAP)": NaN,
    "Temperature of HVAP (THVAP)": NaN,
    "Surface Tension (SRF)": NaN,
    "Temperature of SRF (TSRF)": NaN,
    "Dielectric Constant (DIEL)": NaN,
    "Temperature of DIEL (TDIEL)": NaN,
    "Refractive Index (RFI)": NaN,
    "Temperature of RFI (TRFI)": NaN,
    "Lower Flammability Limit(FLL)": NaN,
    "Upper Flammability Limit(FLU)": NaN,
    "Flash Point (Open Cup Method)": NaN,
    "Flash Point (Closed Cup Method)": NaN,
    "Autoignition Temperature (AIGT)": NaN,
    "NFPA Rating (Health)": NaN,
    "NFPA Rating (Fire)": NaN,
    "NFPA Rating (Safety)": NaN,
    "Class": "Halogenated Derivatives",
    "Subclass": "Halogenated Paraffins",
    "SMILES": "CC(C)(C)Cl"
}