{
    "ID": "1627",
    "Name": "PERFLUOROHEXANE",
    "Synonyms": "PERFLUORO-N-HEXANE, TETRADECAFLUOROHEXANE",
    "CAS No.": "355-42-0",
    "Formula": "C6F14",
    "Molecular Wt. (WT)": "3.38044E+02",
    "Normal Boiling Point Temp. (TB)": "3.29800E+02 K",
    "Freezing Point Temp. (TF)": "1.86000E+02 K",
    "Triple Point Temp. (TT)": NaN,
    "Triple Point Press. (PT)": NaN,
    "Critical Temperature. (TC)": "4.48770E+02 K",
    "Critical Pressure (PC)": "1.86800E+03 kPa",
    "Critical Volume (VC)": "6.06000E-01 m^3/kg-mol",
    "Critical Compressibility (ZC)": "3.03381E-01",
    "Accentric Factor (ACCF)": "5.14000E-01",
    "Vapor Pressure": {
        "Equation Name": "KDB Correlation Equation",
        "Equation": "ln(Pvp) = A*ln(T) + B/T + C + D*T^2 where Pvp in kPa, T in K",
        "Coefficient A": "-1.709529E+01",
        "Coefficient B": "-7.953884E+03",
        "Coefficient C": "1.257365E+02",
        "Coefficient D": "1.937829E-05",
        "Coefficient E": NaN,
        "Coefficient F": NaN,
        "Coefficient G": NaN,
        "T range, from": "270.00 K",
        "T range, to": "445.42 K"
    },
    "Heat Capacity (Ideal Gas)": NaN,
    "Heat Capacity (Liquid)": NaN,
    "Viscosity (Gas, Low P)": NaN,
    "Viscosity (Liquid)": NaN,
    "Themal Conductivity (Gas, Low P)": NaN,
    "Themal Conductivity (Liquid)": NaN,
    "Surface Tension": NaN,
    "Partial Molar Volume (VOLP)": "2.024600E-01 m^3/kg-mol",
    "Solubility Parameters (SOLP)": "1.183925E+04 (J/cm^3)^0.5",
    "SRK accentric factor (WSRK)": NaN,
    "COSTALD Characteristic Volume (VSTAR)": NaN,
    "Rackett parameter (ZRA)": NaN,
    "Aniline Point (ANP)": NaN,
    "H(formation,ideal gas)at 25 C": NaN,
    "G(formation,ideal gas) at 25 C": NaN,
    "Heat of Combustion, Gross form (HCB1)": NaN,
    "Heat of Combustion, Net form (HCB2)": NaN,
    "Van der Waals Volume (VDWV)": NaN,
    "Van der Waals Area (VDWA)": NaN,
    "UNIQUAC Ri Parameter (RI)": 6.8543,
    "UNIQUAC Qi Parameter (QI)": 6.44,
    "Dipole Moment (DM)": NaN,
    "Radius of Gyration (GYRAD)": NaN,
    "Liquid Density (DENL)": NaN,
    "Temperature of DENL (TDENL)": NaN,
    "Heat of Vaporizaiton (HVAP)": NaN,
    "Temperature of HVAP (THVAP)": NaN,
    "Surface Tension (SRF)": NaN,
    "Temperature of SRF (TSRF)": NaN,
    "Dielectric Constant (DIEL)": NaN,
    "Temperature of DIEL (TDIEL)": NaN,
    "Refractive Index (RFI)": NaN,
    "Temperature of RFI (TRFI)": NaN,
    "Lower Flammability Limit(FLL)": NaN,
    "Upper Flammability Limit(FLU)": NaN,
    "Flash Point (Open Cup Method)": NaN,
    "Flash Point (Closed Cup Method)": NaN,
    "Autoignition Temperature (AIGT)": NaN,
    "NFPA Rating (Health)": NaN,
    "NFPA Rating (Fire)": NaN,
    "NFPA Rating (Safety)": NaN,
    "Class": "Halogenated Derivatives",
    "Subclass": "Halogenated Paraffins",
    "SMILES": "C(C(C(C(F)(F)F)(F)F)(F)F)(C(C(F)(F)F)(F)F)(F)F"
}