{
    "ID": "1665",
    "Name": "HEXAFLUOROBENZENE",
    "Synonyms": "PERFLUOROBENZENE, 1,2,3,4,5,6-HEXAFLUOROBENZENE",
    "CAS No.": "392-56-3",
    "Formula": "C6F6",
    "Molecular Wt. (WT)": "1.86056E+02",
    "Normal Boiling Point Temp. (TB)": "3.53410E+02 K",
    "Freezing Point Temp. (TF)": "2.78500E+02 K",
    "Triple Point Temp. (TT)": "2.78300E+02 K",
    "Triple Point Press. (PT)": NaN,
    "Critical Temperature. (TC)": "5.16730E+02 K",
    "Critical Pressure (PC)": "3.27300E+03 kPa",
    "Critical Volume (VC)": "3.35000E-01 m^3/kg-mol",
    "Critical Compressibility (ZC)": "2.55206E-01",
    "Accentric Factor (ACCF)": "3.96000E-01",
    "Vapor Pressure": {
        "Equation Name": "KDB Correlation Equation",
        "Equation": "ln(Pvp) = A*ln(T) + B/T + C + D*T^2 where Pvp in kPa, T in K",
        "Coefficient A": "-1.225741E+01",
        "Coefficient B": "-7.455548E+03",
        "Coefficient C": "9.634663E+01",
        "Coefficient D": "1.030185E-05",
        "Coefficient E": NaN,
        "Coefficient F": NaN,
        "Coefficient G": NaN,
        "T range, from": "278.00 K",
        "T range, to": "516.73 K"
    },
    "Heat Capacity (Ideal Gas)": {
        "Equation Name": "Polynomial Equation",
        "Equation": "Cp = A + B*T + C*T^2 + D*T^3 + E*T^4  where Cp in kJ/kg-mol , T in K",
        "Coefficient A": "3.628000E+01",
        "Coefficient B": "5.267000E-01",
        "Coefficient C": "-4.547000E-04",
        "Coefficient D": "1.456E-07",
        "Coefficient E": "0",
        "Coefficient F": NaN,
        "Coefficient G": NaN,
        "T range, from": NaN,
        "T range, to": NaN
    },
    "Heat Capacity (Liquid)": NaN,
    "Viscosity (Gas, Low P)": NaN,
    "Viscosity (Liquid)": NaN,
    "Themal Conductivity (Gas, Low P)": NaN,
    "Themal Conductivity (Liquid)": NaN,
    "Surface Tension": NaN,
    "Partial Molar Volume (VOLP)": "1.157900E-01 m^3/kg-mol",
    "Solubility Parameters (SOLP)": "1.641295E+04 (J/cm^3)^0.5",
    "SRK accentric factor (WSRK)": NaN,
    "COSTALD Characteristic Volume (VSTAR)": NaN,
    "Rackett parameter (ZRA)": NaN,
    "Aniline Point (ANP)": NaN,
    "H(formation,ideal gas)at 25 C": "-9.573000E+05 kJ/kg-mol",
    "G(formation,ideal gas) at 25 C": "-8.800000E+05 kJ/kg-mol",
    "Heat of Combustion, Gross form (HCB1)": NaN,
    "Heat of Combustion, Net form (HCB2)": NaN,
    "Van der Waals Volume (VDWV)": NaN,
    "Van der Waals Area (VDWA)": NaN,
    "UNIQUAC Ri Parameter (RI)": 4.1688,
    "UNIQUAC Qi Parameter (QI)": 3.144,
    "Dipole Moment (DM)": NaN,
    "Radius of Gyration (GYRAD)": NaN,
    "Liquid Density (DENL)": NaN,
    "Temperature of DENL (TDENL)": NaN,
    "Heat of Vaporizaiton (HVAP)": "3.167700E+04 kJ/kg-mol",
    "Temperature of HVAP (THVAP)": "3.534000E+02 K",
    "Surface Tension (SRF)": NaN,
    "Temperature of SRF (TSRF)": NaN,
    "Dielectric Constant (DIEL)": NaN,
    "Temperature of DIEL (TDIEL)": NaN,
    "Refractive Index (RFI)": NaN,
    "Temperature of RFI (TRFI)": NaN,
    "Lower Flammability Limit(FLL)": NaN,
    "Upper Flammability Limit(FLU)": NaN,
    "Flash Point (Open Cup Method)": NaN,
    "Flash Point (Closed Cup Method)": NaN,
    "Autoignition Temperature (AIGT)": NaN,
    "NFPA Rating (Health)": NaN,
    "NFPA Rating (Fire)": NaN,
    "NFPA Rating (Safety)": NaN,
    "Class": "Halogenated Derivatives",
    "Subclass": "Halogenated Aromatics",
    "SMILES": "C1(=C(C(=C(C(=C1F)F)F)F)F)F"
}