{
    "ID": "1683",
    "Name": "BROMOBENZENE",
    "Synonyms": "MONOBROMOBENZENE, PHENYL BROMIDE",
    "CAS No.": "108-86-1",
    "Formula": "C6H5Br",
    "Molecular Wt. (WT)": "1.57010E+02",
    "Normal Boiling Point Temp. (TB)": "4.29210E+02 K",
    "Freezing Point Temp. (TF)": "2.42500E+02 K",
    "Triple Point Temp. (TT)": "2.42400E+02 K",
    "Triple Point Press. (PT)": NaN,
    "Critical Temperature. (TC)": "6.70000E+02 K",
    "Critical Pressure (PC)": "4.52000E+03 kPa",
    "Critical Volume (VC)": "3.24000E-01 m^3/kg-mol",
    "Critical Compressibility (ZC)": "2.62889E-01",
    "Accentric Factor (ACCF)": "2.51000E-01",
    "Vapor Pressure": {
        "Equation Name": "KDB Correlation Equation",
        "Equation": "ln(Pvp) = A*ln(T) + B/T + C + D*T^2 where Pvp in kPa, T in K",
        "Coefficient A": "-9.416402E+00",
        "Coefficient B": "-7.929485E+03",
        "Coefficient C": "7.924399E+01",
        "Coefficient D": "5.044593E-06",
        "Coefficient E": NaN,
        "Coefficient F": NaN,
        "Coefficient G": NaN,
        "T range, from": "242.43 K",
        "T range, to": "670.15 K"
    },
    "Heat Capacity (Ideal Gas)": {
        "Equation Name": "Polynomial Equation",
        "Equation": "Cp = A + B*T + C*T^2 + D*T^3 + E*T^4  where Cp in kJ/kg-mol , T in K",
        "Coefficient A": "-2.881000E+01",
        "Coefficient B": "5.351000E-01",
        "Coefficient C": "-4.080000E-04",
        "Coefficient D": "1.212E-07",
        "Coefficient E": "0",
        "Coefficient F": NaN,
        "Coefficient G": NaN,
        "T range, from": NaN,
        "T range, to": NaN
    },
    "Heat Capacity (Liquid)": NaN,
    "Viscosity (Gas, Low P)": NaN,
    "Viscosity (Liquid)": {
        "Equation Name": "Andrade Equation",
        "Equation": "ln (VISL) = A + B/ T  where T in K and VISL in cP.",
        "Coefficient A": "-3.869",
        "Coefficient B": "1170",
        "Coefficient C": "0",
        "Coefficient D": "0",
        "Coefficient E": NaN,
        "Coefficient F": NaN,
        "Coefficient G": NaN,
        "T range, from": "273.15 K",
        "T range, to": "423.15 K"
    },
    "Themal Conductivity (Gas, Low P)": NaN,
    "Themal Conductivity (Liquid)": NaN,
    "Surface Tension": NaN,
    "Partial Molar Volume (VOLP)": "1.055100E-01 m^3/kg-mol",
    "Solubility Parameters (SOLP)": "1.984118E+04 (J/cm^3)^0.5",
    "SRK accentric factor (WSRK)": "2.481000E-01",
    "COSTALD Characteristic Volume (VSTAR)": "3.204000E-01 m^3/kg-mol",
    "Rackett parameter (ZRA)": "2.637000E-01",
    "Aniline Point (ANP)": NaN,
    "H(formation,ideal gas)at 25 C": "1.051000E+05 kJ/kg-mol",
    "G(formation,ideal gas) at 25 C": "1.386000E+05 kJ/kg-mol",
    "Heat of Combustion, Gross form (HCB1)": NaN,
    "Heat of Combustion, Net form (HCB2)": NaN,
    "Van der Waals Volume (VDWV)": NaN,
    "Van der Waals Area (VDWA)": NaN,
    "UNIQUAC Ri Parameter (RI)": "4.020000E+00",
    "UNIQUAC Qi Parameter (QI)": "2.980000E+00",
    "Dipole Moment (DM)": "1.500000E+00 debye",
    "Radius of Gyration (GYRAD)": NaN,
    "Liquid Density (DENL)": "9.521716E-03 g-mol/cm^3",
    "Temperature of DENL (TDENL)": "2.930000E+02 K",
    "Heat of Vaporizaiton (HVAP)": "4.250100E+04 kJ/kg-mol",
    "Temperature of HVAP (THVAP)": "4.291000E+02 K",
    "Surface Tension (SRF)": "3.582000E+01 dyn/cm",
    "Temperature of SRF (TSRF)": "2.932000E+02 K",
    "Dielectric Constant (DIEL)": NaN,
    "Temperature of DIEL (TDIEL)": NaN,
    "Refractive Index (RFI)": NaN,
    "Temperature of RFI (TRFI)": NaN,
    "Lower Flammability Limit(FLL)": NaN,
    "Upper Flammability Limit(FLU)": NaN,
    "Flash Point (Open Cup Method)": "3.242611E+02 K",
    "Flash Point (Closed Cup Method)": NaN,
    "Autoignition Temperature (AIGT)": "8.381500E+02 K",
    "NFPA Rating (Health)": "2",
    "NFPA Rating (Fire)": "2",
    "NFPA Rating (Safety)": NaN,
    "Class": "Halogenated Derivatives",
    "Subclass": "Halogenated Aromatics",
    "SMILES": "C1=CC=C(C=C1)Br"
}