{
    "ID": "1684",
    "Name": "CHLOROBENZENE",
    "Synonyms": "PHENYL CHLORIDE, MONOCHLOROBENZENE, MCB",
    "CAS No.": "108-90-7",
    "Formula": "C6H5Cl",
    "Molecular Wt. (WT)": "1.12559E+02",
    "Normal Boiling Point Temp. (TB)": "4.04870E+02 K",
    "Freezing Point Temp. (TF)": "2.27900E+02 K",
    "Triple Point Temp. (TT)": NaN,
    "Triple Point Press. (PT)": NaN,
    "Critical Temperature. (TC)": "6.32400E+02 K",
    "Critical Pressure (PC)": "4.52000E+03 kPa",
    "Critical Volume (VC)": "3.08000E-01 m^3/kg-mol",
    "Critical Compressibility (ZC)": "2.64765E-01",
    "Accentric Factor (ACCF)": "2.49000E-01",
    "Vapor Pressure": {
        "Equation Name": "KDB Correlation Equation",
        "Equation": "ln(Pvp) = A*ln(T) + B/T + C + D*T^2 where Pvp in kPa, T in K",
        "Coefficient A": "-5.429186E+00",
        "Coefficient B": "-6.327345E+03",
        "Coefficient C": "5.242201E+01",
        "Coefficient D": "2.475068E-06",
        "Coefficient E": NaN,
        "Coefficient F": NaN,
        "Coefficient G": NaN,
        "T range, from": "227.95 K",
        "T range, to": "632.35 K"
    },
    "Heat Capacity (Ideal Gas)": {
        "Equation Name": "Polynomial Equation",
        "Equation": "Cp = A + B*T + C*T^2 + D*T^3 + E*T^4  where Cp in kJ/kg-mol , T in K",
        "Coefficient A": "-3.389000E+01",
        "Coefficient B": "5.631000E-01",
        "Coefficient C": "-4.522000E-04",
        "Coefficient D": "1.426E-07",
        "Coefficient E": "0",
        "Coefficient F": NaN,
        "Coefficient G": NaN,
        "T range, from": NaN,
        "T range, to": NaN
    },
    "Heat Capacity (Liquid)": {
        "Equation Name": "Polynomial Equation",
        "Equation": "Cp = A + B*T + C*T^2 + D*T^3  where T in K and Cp in kJ/kg-mol.K",
        "Coefficient A": "-69.08759",
        "Coefficient B": "1.801835",
        "Coefficient C": "-5.020272E-03",
        "Coefficient D": "4.902535E-06",
        "Coefficient E": NaN,
        "Coefficient F": NaN,
        "Coefficient G": NaN,
        "T range, from": "227.95 K",
        "T range, to": "613.15 K"
    },
    "Viscosity (Gas, Low P)": {
        "Equation Name": "Polynomial Equation",
        "Equation": "VISG = A + B*T + C*T^2 where T in K and VISG in cP",
        "Coefficient A": "-.001508",
        "Coefficient B": "2.785E-05",
        "Coefficient C": "4.464E-11",
        "Coefficient D": "0",
        "Coefficient E": NaN,
        "Coefficient F": NaN,
        "Coefficient G": NaN,
        "T range, from": "273.15 K",
        "T range, to": "1273.15 K"
    },
    "Viscosity (Liquid)": {
        "Equation Name": "Quasipolynomial Equation",
        "Equation": "ln (VISL) = A + B/T + C*T + D*T^2  where T in K and VISL in cP.",
        "Coefficient A": "-4.573",
        "Coefficient B": "1196",
        "Coefficient C": ".00137",
        "Coefficient D": "-1.378E-06",
        "Coefficient E": NaN,
        "Coefficient F": NaN,
        "Coefficient G": NaN,
        "T range, from": "228.15 K",
        "T range, to": "623.15 K"
    },
    "Themal Conductivity (Gas, Low P)": {
        "Equation Name": "Polynomial Equation",
        "Equation": "THG = A + B*T + C*T^2 + D*T^3  where T in K and THG in W/m.K",
        "Coefficient A": "-.006394",
        "Coefficient B": "2.634E-05",
        "Coefficient C": "7.328E-08",
        "Coefficient D": "-2.316E-11",
        "Coefficient E": NaN,
        "Coefficient F": NaN,
        "Coefficient G": NaN,
        "T range, from": "273 K",
        "T range, to": "1270 K"
    },
    "Themal Conductivity (Liquid)": {
        "Equation Name": "Polynomial Equation",
        "Equation": "THL = A + B*T + C*T^2 + D*T^3  where T in K and THL in W/m.K",
        "Coefficient A": ".1809",
        "Coefficient B": "-.0001604",
        "Coefficient C": "-4.689E-08",
        "Coefficient D": "0",
        "Coefficient E": NaN,
        "Coefficient F": NaN,
        "Coefficient G": NaN,
        "T range, from": "228 K",
        "T range, to": "600 K"
    },
    "Surface Tension": NaN,
    "Partial Molar Volume (VOLP)": "1.022400E-01 m^3/kg-mol",
    "Solubility Parameters (SOLP)": "2.264963E+04 (J/cm^3)^0.5",
    "SRK accentric factor (WSRK)": "2.461000E-01",
    "COSTALD Characteristic Volume (VSTAR)": "3.056000E-01 m^3/kg-mol",
    "Rackett parameter (ZRA)": "2.651000E-01",
    "Aniline Point (ANP)": NaN,
    "H(formation,ideal gas)at 25 C": "5.187000E+04 kJ/kg-mol",
    "G(formation,ideal gas) at 25 C": "9.923000E+04 kJ/kg-mol",
    "Heat of Combustion, Gross form (HCB1)": NaN,
    "Heat of Combustion, Net form (HCB2)": NaN,
    "Van der Waals Volume (VDWV)": NaN,
    "Van der Waals Area (VDWA)": NaN,
    "UNIQUAC Ri Parameter (RI)": "3.812700E+00",
    "UNIQUAC Qi Parameter (QI)": "2.844000E+00",
    "Dipole Moment (DM)": "1.600000E+00 debye",
    "Radius of Gyration (GYRAD)": "3.568000E+00",
    "Liquid Density (DENL)": "9.826001E-03 g-mol/cm^3",
    "Temperature of DENL (TDENL)": "2.930000E+02 K",
    "Heat of Vaporizaiton (HVAP)": "3.654700E+04 kJ/kg-mol",
    "Temperature of HVAP (THVAP)": "4.051000E+02 K",
    "Surface Tension (SRF)": "3.359000E+01 dyn/cm",
    "Temperature of SRF (TSRF)": "2.932000E+02 K",
    "Dielectric Constant (DIEL)": NaN,
    "Temperature of DIEL (TDIEL)": NaN,
    "Refractive Index (RFI)": NaN,
    "Temperature of RFI (TRFI)": NaN,
    "Lower Flammability Limit(FLL)": "1.300000E+00 % in Air",
    "Upper Flammability Limit(FLU)": "7.100000E+00 % in Air",
    "Flash Point (Open Cup Method)": "3.020389E+02 K",
    "Flash Point (Closed Cup Method)": "3.092611E+02 K",
    "Autoignition Temperature (AIGT)": "9.131500E+02 K",
    "NFPA Rating (Health)": "2",
    "NFPA Rating (Fire)": "3",
    "NFPA Rating (Safety)": NaN,
    "Class": "Halogenated Derivatives",
    "Subclass": "Halogenated Aromatics",
    "SMILES": "C1=CC=C(C=C1)Cl"
}