{
    "ID": "1685",
    "Name": "FLUOROBENZENE",
    "Synonyms": "PHENYL FLUORIDE, PHENYL FLUORIDE",
    "CAS No.": "462-06-6",
    "Formula": "C6H5F",
    "Molecular Wt. (WT)": "9.61039E+01",
    "Normal Boiling Point Temp. (TB)": "3.57880E+02 K",
    "Freezing Point Temp. (TF)": "2.30940E+02 K",
    "Triple Point Temp. (TT)": NaN,
    "Triple Point Press. (PT)": NaN,
    "Critical Temperature. (TC)": "5.60090E+02 K",
    "Critical Pressure (PC)": "4.55100E+03 kPa",
    "Critical Volume (VC)": "2.69000E-01 m^3/kg-mol",
    "Critical Compressibility (ZC)": "2.62884E-01",
    "Accentric Factor (ACCF)": "2.44000E-01",
    "Vapor Pressure": {
        "Equation Name": "KDB Correlation Equation",
        "Equation": "ln(Pvp) = A*ln(T) + B/T + C + D*T^2 where Pvp in kPa, T in K",
        "Coefficient A": "-6.903600E+00",
        "Coefficient B": "-5.968364E+03",
        "Coefficient C": "6.127329E+01",
        "Coefficient D": "4.716693E-06",
        "Coefficient E": NaN,
        "Coefficient F": NaN,
        "Coefficient G": NaN,
        "T range, from": "230.94 K",
        "T range, to": "560.09 K"
    },
    "Heat Capacity (Ideal Gas)": {
        "Equation Name": "Polynomial Equation",
        "Equation": "Cp = A + B*T + C*T^2 + D*T^3 + E*T^4  where Cp in kJ/kg-mol , T in K",
        "Coefficient A": "-3.873000E+01",
        "Coefficient B": "5.669000E-01",
        "Coefficient C": "-4.434000E-04",
        "Coefficient D": "1.355E-07",
        "Coefficient E": "0",
        "Coefficient F": NaN,
        "Coefficient G": NaN,
        "T range, from": NaN,
        "T range, to": NaN
    },
    "Heat Capacity (Liquid)": NaN,
    "Viscosity (Gas, Low P)": NaN,
    "Viscosity (Liquid)": {
        "Equation Name": "Andrade Equation",
        "Equation": "ln (VISL) = A + B/ T  where T in K and VISL in cP.",
        "Coefficient A": "-4.116",
        "Coefficient B": "1041",
        "Coefficient C": "0",
        "Coefficient D": "0",
        "Coefficient E": NaN,
        "Coefficient F": NaN,
        "Coefficient G": NaN,
        "T range, from": "282.15 K",
        "T range, to": "373.15 K"
    },
    "Themal Conductivity (Gas, Low P)": NaN,
    "Themal Conductivity (Liquid)": NaN,
    "Surface Tension": NaN,
    "Partial Molar Volume (VOLP)": "9.486000E-02 m^3/kg-mol",
    "Solubility Parameters (SOLP)": "1.822116E+04 (J/cm^3)^0.5",
    "SRK accentric factor (WSRK)": "2.434000E-01",
    "COSTALD Characteristic Volume (VSTAR)": "2.702000E-01 m^3/kg-mol",
    "Rackett parameter (ZRA)": "2.662000E-01",
    "Aniline Point (ANP)": NaN,
    "H(formation,ideal gas)at 25 C": "-1.166000E+05 kJ/kg-mol",
    "G(formation,ideal gas) at 25 C": "-6.908000E+04 kJ/kg-mol",
    "Heat of Combustion, Gross form (HCB1)": NaN,
    "Heat of Combustion, Net form (HCB2)": NaN,
    "Van der Waals Volume (VDWV)": NaN,
    "Van der Waals Area (VDWA)": NaN,
    "UNIQUAC Ri Parameter (RI)": "3.404100E+00",
    "UNIQUAC Qi Parameter (QI)": "2.572000E+00",
    "Dipole Moment (DM)": "1.400000E+00 debye",
    "Radius of Gyration (GYRAD)": NaN,
    "Liquid Density (DENL)": "1.065514E-02 g-mol/cm^3",
    "Temperature of DENL (TDENL)": "2.930000E+02 K",
    "Heat of Vaporizaiton (HVAP)": "3.338800E+04 kJ/kg-mol",
    "Temperature of HVAP (THVAP)": "3.581000E+02 K",
    "Surface Tension (SRF)": "2.726000E+01 dyn/cm",
    "Temperature of SRF (TSRF)": "2.932000E+02 K",
    "Dielectric Constant (DIEL)": NaN,
    "Temperature of DIEL (TDIEL)": NaN,
    "Refractive Index (RFI)": NaN,
    "Temperature of RFI (TRFI)": NaN,
    "Lower Flammability Limit(FLL)": NaN,
    "Upper Flammability Limit(FLU)": NaN,
    "Flash Point (Open Cup Method)": NaN,
    "Flash Point (Closed Cup Method)": NaN,
    "Autoignition Temperature (AIGT)": NaN,
    "NFPA Rating (Health)": 2.0,
    "NFPA Rating (Fire)": 3.0,
    "NFPA Rating (Safety)": 3.0,
    "Class": "Halogenated Derivatives",
    "Subclass": "Halogenated Aromatics",
    "SMILES": "C1=CC=C(C=C1)F"
}