{
    "ID": "1686",
    "Name": "IODOBENZENE",
    "Synonyms": "BENZENE IODIDE, PHENYL IODIDE",
    "CAS No.": "591-50-4",
    "Formula": "C6H5I",
    "Molecular Wt. (WT)": "2.04010E+02",
    "Normal Boiling Point Temp. (TB)": "4.61600E+02 K",
    "Freezing Point Temp. (TF)": "2.41800E+02 K",
    "Triple Point Temp. (TT)": NaN,
    "Triple Point Press. (PT)": NaN,
    "Critical Temperature. (TC)": "7.21000E+02 K",
    "Critical Pressure (PC)": "4.52000E+03 kPa",
    "Critical Volume (VC)": "3.51000E-01 m^3/kg-mol",
    "Critical Compressibility (ZC)": "2.64651E-01",
    "Accentric Factor (ACCF)": "2.49000E-01",
    "Vapor Pressure": {
        "Equation Name": "KDB Correlation Equation",
        "Equation": "ln(Pvp) = A*ln(T) + B/T + C + D*T^2 where Pvp in kPa, T in K",
        "Coefficient A": "-7.902482E+00",
        "Coefficient B": "-8.126381E+03",
        "Coefficient C": "7.002673E+01",
        "Coefficient D": "3.178078E-06",
        "Coefficient E": NaN,
        "Coefficient F": NaN,
        "Coefficient G": NaN,
        "T range, from": "241.83 K",
        "T range, to": "721.15 K"
    },
    "Heat Capacity (Ideal Gas)": {
        "Equation Name": "Polynomial Equation",
        "Equation": "Cp = A + B*T + C*T^2 + D*T^3 + E*T^4  where Cp in kJ/kg-mol , T in K",
        "Coefficient A": "-2.927000E+01",
        "Coefficient B": "5.564000E-01",
        "Coefficient C": "-4.509000E-04",
        "Coefficient D": "1.443E-07",
        "Coefficient E": "0",
        "Coefficient F": NaN,
        "Coefficient G": NaN,
        "T range, from": NaN,
        "T range, to": NaN
    },
    "Heat Capacity (Liquid)": NaN,
    "Viscosity (Gas, Low P)": NaN,
    "Viscosity (Liquid)": {
        "Equation Name": "Andrade Equation",
        "Equation": "ln (VISL) = A + B/ T  where T in K and VISL in cP.",
        "Coefficient A": "-3.933",
        "Coefficient B": "1303",
        "Coefficient C": "0",
        "Coefficient D": "0",
        "Coefficient E": NaN,
        "Coefficient F": NaN,
        "Coefficient G": NaN,
        "T range, from": "277.15 K",
        "T range, to": "413.15 K"
    },
    "Themal Conductivity (Gas, Low P)": NaN,
    "Themal Conductivity (Liquid)": NaN,
    "Surface Tension": NaN,
    "Partial Molar Volume (VOLP)": NaN,
    "Solubility Parameters (SOLP)": "2.031573E+04 (J/cm^3)^0.5",
    "SRK accentric factor (WSRK)": NaN,
    "COSTALD Characteristic Volume (VSTAR)": NaN,
    "Rackett parameter (ZRA)": "2.645000E-01",
    "Aniline Point (ANP)": NaN,
    "H(formation,ideal gas)at 25 C": "1.627000E+05 kJ/kg-mol",
    "G(formation,ideal gas) at 25 C": "1.879000E+05 kJ/kg-mol",
    "Heat of Combustion, Gross form (HCB1)": NaN,
    "Heat of Combustion, Net form (HCB2)": NaN,
    "Van der Waals Volume (VDWV)": NaN,
    "Van der Waals Area (VDWA)": NaN,
    "UNIQUAC Ri Parameter (RI)": NaN,
    "UNIQUAC Qi Parameter (QI)": NaN,
    "Dipole Moment (DM)": "1.400000E+00 debye",
    "Radius of Gyration (GYRAD)": NaN,
    "Liquid Density (DENL)": "9.092692E-03 g-mol/cm^3",
    "Temperature of DENL (TDENL)": "2.770000E+02 K",
    "Heat of Vaporizaiton (HVAP)": "3.949700E+04 kJ/kg-mol",
    "Temperature of HVAP (THVAP)": "4.616000E+02 K",
    "Surface Tension (SRF)": "3.927000E+01 dyn/cm",
    "Temperature of SRF (TSRF)": "2.932000E+02 K",
    "Dielectric Constant (DIEL)": NaN,
    "Temperature of DIEL (TDIEL)": NaN,
    "Refractive Index (RFI)": NaN,
    "Temperature of RFI (TRFI)": NaN,
    "Lower Flammability Limit(FLL)": NaN,
    "Upper Flammability Limit(FLU)": NaN,
    "Flash Point (Open Cup Method)": NaN,
    "Flash Point (Closed Cup Method)": NaN,
    "Autoignition Temperature (AIGT)": NaN,
    "NFPA Rating (Health)": NaN,
    "NFPA Rating (Fire)": NaN,
    "NFPA Rating (Safety)": NaN,
    "Class": "Halogenated Derivatives",
    "Subclass": "Halogenated Aromatics",
    "SMILES": "C1=CC=C(C=C1)I"
}