{
    "ID": "17",
    "Name": "N-HEPTADECANE",
    "Synonyms": "HEPTADECANE",
    "CAS No.": "629-78-7",
    "Formula": "C17H36",
    "Molecular Wt. (WT)": "2.40471E+02",
    "Normal Boiling Point Temp. (TB)": "5.75100E+02 K",
    "Freezing Point Temp. (TF)": "2.95000E+02 K",
    "Triple Point Temp. (TT)": NaN,
    "Triple Point Press. (PT)": NaN,
    "Critical Temperature. (TC)": "7.36000E+02 K",
    "Critical Pressure (PC)": "1.34000E+03 kPa",
    "Critical Volume (VC)": "1.10300E+00 m^3/kg-mol",
    "Critical Compressibility (ZC)": "2.41527E-01",
    "Accentric Factor (ACCF)": "7.70000E-01",
    "Vapor Pressure": {
        "Equation Name": "KDB Correlation Equation",
        "Equation": "ln(Pvp) = A*ln(T) + B/T + C + D*T^2 where Pvp in kPa, T in K",
        "Coefficient A": "-3.503923E+01",
        "Coefficient B": "-2.122947E+04",
        "Coefficient C": "2.591131E+02",
        "Coefficient D": "1.531051E-05",
        "Coefficient E": NaN,
        "Coefficient F": NaN,
        "Coefficient G": NaN,
        "T range, from": "295.13 K",
        "T range, to": "733.37 K"
    },
    "Heat Capacity (Ideal Gas)": {
        "Equation Name": "Polynomial Equation",
        "Equation": "Cp = A + B*T + C*T^2 + D*T^3 + E*T^4  where Cp in kJ/kg-mol , T in K",
        "Coefficient A": "1.884692E+02",
        "Coefficient B": "-3.334491E-02",
        "Coefficient C": "3.785501E-03",
        "Coefficient D": "-5.246849E-06",
        "Coefficient E": "2.203571E-09",
        "Coefficient F": NaN,
        "Coefficient G": NaN,
        "T range, from": NaN,
        "T range, to": NaN
    },
    "Heat Capacity (Liquid)": NaN,
    "Viscosity (Gas, Low P)": NaN,
    "Viscosity (Liquid)": {
        "Equation Name": "Andrade Equation",
        "Equation": "ln (VISL) = A + B/ T  where T in K and VISL in cP.",
        "Coefficient A": "-4.642",
        "Coefficient B": "1745",
        "Coefficient C": "0",
        "Coefficient D": "0",
        "Coefficient E": NaN,
        "Coefficient F": NaN,
        "Coefficient G": NaN,
        "T range, from": "298.15 K",
        "T range, to": "473.15 K"
    },
    "Themal Conductivity (Gas, Low P)": NaN,
    "Themal Conductivity (Liquid)": NaN,
    "Surface Tension": NaN,
    "Partial Molar Volume (VOLP)": NaN,
    "Solubility Parameters (SOLP)": "1.642318E+04 (J/cm^3)^0.5",
    "SRK accentric factor (WSRK)": "7.946000E-01",
    "COSTALD Characteristic Volume (VSTAR)": "1.120800E+00 m^3/kg-mol",
    "Rackett parameter (ZRA)": "2.343000E-01",
    "Aniline Point (ANP)": NaN,
    "H(formation,ideal gas)at 25 C": "-3.942000E+05 kJ/kg-mol",
    "G(formation,ideal gas) at 25 C": "9.215000E+04 kJ/kg-mol",
    "Heat of Combustion, Gross form (HCB1)": NaN,
    "Heat of Combustion, Net form (HCB2)": NaN,
    "Van der Waals Volume (VDWV)": NaN,
    "Van der Waals Area (VDWA)": NaN,
    "UNIQUAC Ri Parameter (RI)": NaN,
    "UNIQUAC Qi Parameter (QI)": NaN,
    "Dipole Moment (DM)": NaN,
    "Radius of Gyration (GYRAD)": NaN,
    "Liquid Density (DENL)": "3.235312E-03 g-mol/cm^3",
    "Temperature of DENL (TDENL)": "2.980000E+02 K",
    "Heat of Vaporizaiton (HVAP)": "5.288600E+04 kJ/kg-mol",
    "Temperature of HVAP (THVAP)": "5.760000E+02 K",
    "Surface Tension (SRF)": "2.706000E+01 dyn/cm",
    "Temperature of SRF (TSRF)": "3.032000E+02 K",
    "Dielectric Constant (DIEL)": NaN,
    "Temperature of DIEL (TDIEL)": NaN,
    "Refractive Index (RFI)": NaN,
    "Temperature of RFI (TRFI)": NaN,
    "Lower Flammability Limit(FLL)": NaN,
    "Upper Flammability Limit(FLU)": NaN,
    "Flash Point (Open Cup Method)": NaN,
    "Flash Point (Closed Cup Method)": NaN,
    "Autoignition Temperature (AIGT)": NaN,
    "NFPA Rating (Health)": NaN,
    "NFPA Rating (Fire)": NaN,
    "NFPA Rating (Safety)": NaN,
    "Class": "Paraffinic Hydrocarbons",
    "Subclass": "n-Alkanes",
    "SMILES": "CCCCCCCCCCCCCCCCC"
}