{
    "ID": "1716",
    "Name": "TETRAFLUOROETHYLENE",
    "Synonyms": "PERFLUOROETHENE, TFE, 1,1,2,2,-TETRAFLUOROETHYLENE",
    "CAS No.": "116-14-3",
    "Formula": "C2F4",
    "Molecular Wt. (WT)": "1.00016E+02",
    "Normal Boiling Point Temp. (TB)": "1.97200E+02 K",
    "Freezing Point Temp. (TF)": "1.30600E+02 K",
    "Triple Point Temp. (TT)": NaN,
    "Triple Point Press. (PT)": NaN,
    "Critical Temperature. (TC)": "3.06500E+02 K",
    "Critical Pressure (PC)": "3.94000E+03 kPa",
    "Critical Volume (VC)": "1.72000E-01 m^3/kg-mol",
    "Critical Compressibility (ZC)": "2.65924E-01",
    "Accentric Factor (ACCF)": "2.23000E-01",
    "Vapor Pressure": {
        "Equation Name": "KDB Correlation Equation",
        "Equation": "ln(Pvp) = A*ln(T) + B/T + C + D*T^2 where Pvp in kPa, T in K",
        "Coefficient A": "-8.506504E+00",
        "Coefficient B": "-3.476590E+03",
        "Coefficient C": "6.637299E+01",
        "Coefficient D": "2.078841E-05",
        "Coefficient E": NaN,
        "Coefficient F": NaN,
        "Coefficient G": NaN,
        "T range, from": "142.00 K",
        "T range, to": "306.45 K"
    },
    "Heat Capacity (Ideal Gas)": {
        "Equation Name": "Polynomial Equation",
        "Equation": "Cp = A + B*T + C*T^2 + D*T^3 + E*T^4  where Cp in kJ/kg-mol , T in K",
        "Coefficient A": "2.901000E+01",
        "Coefficient B": "2.277000E-01",
        "Coefficient C": "-2.036000E-04",
        "Coefficient D": "6.778E-08",
        "Coefficient E": "0",
        "Coefficient F": NaN,
        "Coefficient G": NaN,
        "T range, from": NaN,
        "T range, to": NaN
    },
    "Heat Capacity (Liquid)": NaN,
    "Viscosity (Gas, Low P)": NaN,
    "Viscosity (Liquid)": NaN,
    "Themal Conductivity (Gas, Low P)": NaN,
    "Themal Conductivity (Liquid)": NaN,
    "Surface Tension": NaN,
    "Partial Molar Volume (VOLP)": NaN,
    "Solubility Parameters (SOLP)": "5.717124E+03 (J/cm^3)^0.5",
    "SRK accentric factor (WSRK)": NaN,
    "COSTALD Characteristic Volume (VSTAR)": NaN,
    "Rackett parameter (ZRA)": NaN,
    "Aniline Point (ANP)": NaN,
    "H(formation,ideal gas)at 25 C": "-6.590000E+05 kJ/kg-mol",
    "G(formation,ideal gas) at 25 C": "-6.241000E+05 kJ/kg-mol",
    "Heat of Combustion, Gross form (HCB1)": NaN,
    "Heat of Combustion, Net form (HCB2)": NaN,
    "Van der Waals Volume (VDWV)": NaN,
    "Van der Waals Area (VDWA)": NaN,
    "UNIQUAC Ri Parameter (RI)": NaN,
    "UNIQUAC Qi Parameter (QI)": NaN,
    "Dipole Moment (DM)": NaN,
    "Radius of Gyration (GYRAD)": NaN,
    "Liquid Density (DENL)": "1.518763E-02 g-mol/cm^3",
    "Temperature of DENL (TDENL)": "1.970000E+02 K",
    "Heat of Vaporizaiton (HVAP)": "1.682000E+04 kJ/kg-mol",
    "Temperature of HVAP (THVAP)": "1.969000E+02 K",
    "Surface Tension (SRF)": NaN,
    "Temperature of SRF (TSRF)": NaN,
    "Dielectric Constant (DIEL)": NaN,
    "Temperature of DIEL (TDIEL)": NaN,
    "Refractive Index (RFI)": NaN,
    "Temperature of RFI (TRFI)": NaN,
    "Lower Flammability Limit(FLL)": NaN,
    "Upper Flammability Limit(FLU)": NaN,
    "Flash Point (Open Cup Method)": NaN,
    "Flash Point (Closed Cup Method)": NaN,
    "Autoignition Temperature (AIGT)": NaN,
    "NFPA Rating (Health)": NaN,
    "NFPA Rating (Fire)": NaN,
    "NFPA Rating (Safety)": NaN,
    "Class": "Halogenated Derivatives",
    "Subclass": "Halogenated Cyclic or Unsaturated",
    "SMILES": "C(=C(F)F)(F)F"
}