{
    "ID": "1719",
    "Name": "TRICHLOROETHYLENE",
    "Synonyms": "TRICHLOROETHENE, FLUATE, CHLORYLEN",
    "CAS No.": "79-01-6",
    "Formula": "C2HCl3",
    "Molecular Wt. (WT)": "1.31389E+02",
    "Normal Boiling Point Temp. (TB)": "3.60360E+02 K",
    "Freezing Point Temp. (TF)": "1.88400E+02 K",
    "Triple Point Temp. (TT)": NaN,
    "Triple Point Press. (PT)": NaN,
    "Critical Temperature. (TC)": "5.44200E+02 K",
    "Critical Pressure (PC)": "5.02000E+03 kPa",
    "Critical Volume (VC)": "2.56000E-01 m^3/kg-mol",
    "Critical Compressibility (ZC)": "2.84020E-01",
    "Accentric Factor (ACCF)": "2.13000E-01",
    "Vapor Pressure": {
        "Equation Name": "KDB Correlation Equation",
        "Equation": "ln(Pvp) = A*ln(T) + B/T + C + D*T^2 where Pvp in kPa, T in K",
        "Coefficient A": "-3.586434E+00",
        "Coefficient B": "-5.142974E+03",
        "Coefficient C": "3.983149E+01",
        "Coefficient D": "1.342324E-06",
        "Coefficient E": NaN,
        "Coefficient F": NaN,
        "Coefficient G": NaN,
        "T range, from": "188.40 K",
        "T range, to": "571.00 K"
    },
    "Heat Capacity (Ideal Gas)": {
        "Equation Name": "Polynomial Equation",
        "Equation": "Cp = A + B*T + C*T^2 + D*T^3 + E*T^4  where Cp in kJ/kg-mol , T in K",
        "Coefficient A": "3.017000E+01",
        "Coefficient B": "2.287000E-01",
        "Coefficient C": "-2.229000E-04",
        "Coefficient D": "8.244E-08",
        "Coefficient E": "0",
        "Coefficient F": NaN,
        "Coefficient G": NaN,
        "T range, from": NaN,
        "T range, to": NaN
    },
    "Heat Capacity (Liquid)": NaN,
    "Viscosity (Gas, Low P)": NaN,
    "Viscosity (Liquid)": NaN,
    "Themal Conductivity (Gas, Low P)": NaN,
    "Themal Conductivity (Liquid)": NaN,
    "Surface Tension": NaN,
    "Partial Molar Volume (VOLP)": "9.001000E-02 m^3/kg-mol",
    "Solubility Parameters (SOLP)": "1.901072E+04 (J/cm^3)^0.5",
    "SRK accentric factor (WSRK)": NaN,
    "COSTALD Characteristic Volume (VSTAR)": NaN,
    "Rackett parameter (ZRA)": "2.690000E-01",
    "Aniline Point (ANP)": NaN,
    "H(formation,ideal gas)at 25 C": "-5.862000E+03 kJ/kg-mol",
    "G(formation,ideal gas) at 25 C": "1.989000E+04 kJ/kg-mol",
    "Heat of Combustion, Gross form (HCB1)": NaN,
    "Heat of Combustion, Net form (HCB2)": NaN,
    "Van der Waals Volume (VDWV)": NaN,
    "Van der Waals Area (VDWA)": NaN,
    "UNIQUAC Ri Parameter (RI)": "3.309200E+00",
    "UNIQUAC Qi Parameter (QI)": "2.860000E+00",
    "Dipole Moment (DM)": "9.000000E-01 debye",
    "Radius of Gyration (GYRAD)": "3.759000E+00",
    "Liquid Density (DENL)": "1.112727E-02 g-mol/cm^3",
    "Temperature of DENL (TDENL)": "2.930000E+02 K",
    "Heat of Vaporizaiton (HVAP)": "3.138000E+04 kJ/kg-mol",
    "Temperature of HVAP (THVAP)": "3.612000E+02 K",
    "Surface Tension (SRF)": "2.900000E+01 dyn/cm",
    "Temperature of SRF (TSRF)": "2.932000E+02 K",
    "Dielectric Constant (DIEL)": NaN,
    "Temperature of DIEL (TDIEL)": NaN,
    "Refractive Index (RFI)": NaN,
    "Temperature of RFI (TRFI)": NaN,
    "Lower Flammability Limit(FLL)": NaN,
    "Upper Flammability Limit(FLU)": NaN,
    "Flash Point (Open Cup Method)": NaN,
    "Flash Point (Closed Cup Method)": NaN,
    "Autoignition Temperature (AIGT)": NaN,
    "NFPA Rating (Health)": 2.0,
    "NFPA Rating (Fire)": 1.0,
    "NFPA Rating (Safety)": 1.0,
    "Class": "Halogenated Derivatives",
    "Subclass": "Halogenated Cyclic or Unsaturated",
    "SMILES": "C(=C(Cl)Cl)Cl"
}