{
    "ID": "1731",
    "Name": "VINYL CHLORIDE",
    "Synonyms": "CHLOROETHYLENE, CHLOROETHENE",
    "CAS No.": "75-01-4",
    "Formula": "C2H3Cl",
    "Molecular Wt. (WT)": "6.24987E+01",
    "Normal Boiling Point Temp. (TB)": "2.59350E+02 K",
    "Freezing Point Temp. (TF)": "1.19400E+02 K",
    "Triple Point Temp. (TT)": NaN,
    "Triple Point Press. (PT)": NaN,
    "Critical Temperature. (TC)": "4.24610E+02 K",
    "Critical Pressure (PC)": "5.15500E+03 kPa",
    "Critical Volume (VC)": NaN,
    "Critical Compressibility (ZC)": NaN,
    "Accentric Factor (ACCF)": "1.22000E-01",
    "Vapor Pressure": {
        "Equation Name": "KDB Correlation Equation",
        "Equation": "ln(Pvp) = A*ln(T) + B/T + C + D*T^2 where Pvp in kPa, T in K",
        "Coefficient A": "-1.269075E+01",
        "Coefficient B": "-5.427598E+03",
        "Coefficient C": "9.489134E+01",
        "Coefficient D": "1.802376E-05",
        "Coefficient E": NaN,
        "Coefficient F": NaN,
        "Coefficient G": NaN,
        "T range, from": "119.36 K",
        "T range, to": "432.00 K"
    },
    "Heat Capacity (Ideal Gas)": {
        "Equation Name": "Polynomial Equation",
        "Equation": "Cp = A + B*T + C*T^2 + D*T^3 + E*T^4  where Cp in kJ/kg-mol , T in K",
        "Coefficient A": "5.949000E+00",
        "Coefficient B": "2.019000E-01",
        "Coefficient C": "-1.536000E-04",
        "Coefficient D": "4.773E-08",
        "Coefficient E": "0",
        "Coefficient F": NaN,
        "Coefficient G": NaN,
        "T range, from": NaN,
        "T range, to": NaN
    },
    "Heat Capacity (Liquid)": NaN,
    "Viscosity (Gas, Low P)": NaN,
    "Viscosity (Liquid)": NaN,
    "Themal Conductivity (Gas, Low P)": NaN,
    "Themal Conductivity (Liquid)": NaN,
    "Surface Tension": NaN,
    "Partial Molar Volume (VOLP)": "6.864000E-02 m^3/kg-mol",
    "Solubility Parameters (SOLP)": NaN,
    "SRK accentric factor (WSRK)": NaN,
    "COSTALD Characteristic Volume (VSTAR)": NaN,
    "Rackett parameter (ZRA)": NaN,
    "Aniline Point (ANP)": NaN,
    "H(formation,ideal gas)at 25 C": "3.517000E+04 kJ/kg-mol",
    "G(formation,ideal gas) at 25 C": "5.154000E+04 kJ/kg-mol",
    "Heat of Combustion, Gross form (HCB1)": NaN,
    "Heat of Combustion, Net form (HCB2)": NaN,
    "Van der Waals Volume (VDWV)": NaN,
    "Van der Waals Area (VDWA)": NaN,
    "UNIQUAC Ri Parameter (RI)": "2.111400E+00",
    "UNIQUAC Qi Parameter (QI)": "1.896000E+00",
    "Dipole Moment (DM)": "1.450000E+00 debye",
    "Radius of Gyration (GYRAD)": NaN,
    "Liquid Density (DENL)": "1.550432E-02 g-mol/cm^3",
    "Temperature of DENL (TDENL)": "2.590000E+02 K",
    "Heat of Vaporizaiton (HVAP)": "2.226300E+04 kJ/kg-mol",
    "Temperature of HVAP (THVAP)": "2.594000E+02 K",
    "Surface Tension (SRF)": NaN,
    "Temperature of SRF (TSRF)": NaN,
    "Dielectric Constant (DIEL)": NaN,
    "Temperature of DIEL (TDIEL)": NaN,
    "Refractive Index (RFI)": NaN,
    "Temperature of RFI (TRFI)": NaN,
    "Lower Flammability Limit(FLL)": "4.000000E+00 % in Air",
    "Upper Flammability Limit(FLU)": "2.600000E+01 % in Air",
    "Flash Point (Open Cup Method)": NaN,
    "Flash Point (Closed Cup Method)": "1.942611E+02 K",
    "Autoignition Temperature (AIGT)": "7.453723E+02 K",
    "NFPA Rating (Health)": "2",
    "NFPA Rating (Fire)": "4",
    "NFPA Rating (Safety)": "2",
    "Class": "Halogenated Derivatives",
    "Subclass": "Halogenated Cyclic or Unsaturated",
    "SMILES": "C=CCl"
}