{
    "ID": "1743",
    "Name": "OCTAFLUOROCYCLOBUTANE",
    "Synonyms": "PERFLUOROCYCLOBUTANE, FREON 318, CYCLOOCTAFLUOROBUTANE",
    "CAS No.": "115-25-3",
    "Formula": "C4F8",
    "Molecular Wt. (WT)": "2.00031E+02",
    "Normal Boiling Point Temp. (TB)": "2.67160E+02 K",
    "Freezing Point Temp. (TF)": "2.32960E+02 K",
    "Triple Point Temp. (TT)": "2.32950E+02 K",
    "Triple Point Press. (PT)": NaN,
    "Critical Temperature. (TC)": "3.88460E+02 K",
    "Critical Pressure (PC)": "2.78400E+03 kPa",
    "Critical Volume (VC)": "3.24000E-01 m^3/kg-mol",
    "Critical Compressibility (ZC)": "2.79274E-01",
    "Accentric Factor (ACCF)": "3.56000E-01",
    "Vapor Pressure": {
        "Equation Name": "KDB Correlation Equation",
        "Equation": "ln(Pvp) = A*ln(T) + B/T + C + D*T^2 where Pvp in kPa, T in K",
        "Coefficient A": "-1.162498E+01",
        "Coefficient B": "-5.425361E+03",
        "Coefficient C": "8.869635E+01",
        "Coefficient D": "1.661942E-05",
        "Coefficient E": NaN,
        "Coefficient F": NaN,
        "Coefficient G": NaN,
        "T range, from": "232.96 K",
        "T range, to": "388.37 K"
    },
    "Heat Capacity (Ideal Gas)": NaN,
    "Heat Capacity (Liquid)": NaN,
    "Viscosity (Gas, Low P)": NaN,
    "Viscosity (Liquid)": NaN,
    "Themal Conductivity (Gas, Low P)": NaN,
    "Themal Conductivity (Liquid)": NaN,
    "Surface Tension": NaN,
    "Partial Molar Volume (VOLP)": "1.160300E-01 m^3/kg-mol",
    "Solubility Parameters (SOLP)": "1.154470E+04 (J/cm^3)^0.5",
    "SRK accentric factor (WSRK)": NaN,
    "COSTALD Characteristic Volume (VSTAR)": NaN,
    "Rackett parameter (ZRA)": NaN,
    "Aniline Point (ANP)": NaN,
    "H(formation,ideal gas)at 25 C": NaN,
    "G(formation,ideal gas) at 25 C": NaN,
    "Heat of Combustion, Gross form (HCB1)": NaN,
    "Heat of Combustion, Net form (HCB2)": NaN,
    "Van der Waals Volume (VDWV)": NaN,
    "Van der Waals Area (VDWA)": NaN,
    "UNIQUAC Ri Parameter (RI)": 4.0422,
    "UNIQUAC Qi Parameter (QI)": 3.68,
    "Dipole Moment (DM)": NaN,
    "Radius of Gyration (GYRAD)": NaN,
    "Liquid Density (DENL)": "8.268710E-03 g-mol/cm^3",
    "Temperature of DENL (TDENL)": "2.530000E+02 K",
    "Heat of Vaporizaiton (HVAP)": "2.334700E+04 kJ/kg-mol",
    "Temperature of HVAP (THVAP)": "2.672000E+02 K",
    "Surface Tension (SRF)": "8.300000E+00 dyn/cm",
    "Temperature of SRF (TSRF)": "2.943000E+02 K",
    "Dielectric Constant (DIEL)": NaN,
    "Temperature of DIEL (TDIEL)": NaN,
    "Refractive Index (RFI)": NaN,
    "Temperature of RFI (TRFI)": NaN,
    "Lower Flammability Limit(FLL)": NaN,
    "Upper Flammability Limit(FLU)": NaN,
    "Flash Point (Open Cup Method)": NaN,
    "Flash Point (Closed Cup Method)": NaN,
    "Autoignition Temperature (AIGT)": NaN,
    "NFPA Rating (Health)": NaN,
    "NFPA Rating (Fire)": NaN,
    "NFPA Rating (Safety)": NaN,
    "Class": "Halogenated Derivatives",
    "Subclass": "Halogenated Cyclic or Unsaturated",
    "SMILES": "C1(C(C(C1(F)F)(F)F)(F)F)(F)F"
}