{
    "ID": "1764",
    "Name": "PHOSGENE",
    "Synonyms": "CARBONYL DICHLORIDE, CARBON DICHLORIDE OXIDE, CARBON OXYCHLORIDE",
    "CAS No.": "75-44-5",
    "Formula": "CCl2O",
    "Molecular Wt. (WT)": "9.89164E+01",
    "Normal Boiling Point Temp. (TB)": "2.80710E+02 K",
    "Freezing Point Temp. (TF)": "1.45000E+02 K",
    "Triple Point Temp. (TT)": NaN,
    "Triple Point Press. (PT)": NaN,
    "Critical Temperature. (TC)": "4.55150E+02 K",
    "Critical Pressure (PC)": "5.67400E+03 kPa",
    "Critical Volume (VC)": "1.90100E-01 m^3/kg-mol",
    "Critical Compressibility (ZC)": "2.85023E-01",
    "Accentric Factor (ACCF)": "2.05000E-01",
    "Vapor Pressure": {
        "Equation Name": "KDB Correlation Equation",
        "Equation": "ln(Pvp) = A*ln(T) + B/T + C + D*T^2 where Pvp in kPa, T in K",
        "Coefficient A": "-9.577947E+00",
        "Coefficient B": "-5.180062E+03",
        "Coefficient C": "7.608673E+01",
        "Coefficient D": "1.241635E-05",
        "Coefficient E": NaN,
        "Coefficient F": NaN,
        "Coefficient G": NaN,
        "T range, from": "145.37 K",
        "T range, to": "455.00 K"
    },
    "Heat Capacity (Ideal Gas)": {
        "Equation Name": "Polynomial Equation",
        "Equation": "Cp = A + B*T + C*T^2 + D*T^3 + E*T^4  where Cp in kJ/kg-mol , T in K",
        "Coefficient A": "2.809000E+01",
        "Coefficient B": "1.361000E-01",
        "Coefficient C": "-1.374000E-04",
        "Coefficient D": "5.07E-08",
        "Coefficient E": "0",
        "Coefficient F": NaN,
        "Coefficient G": NaN,
        "T range, from": NaN,
        "T range, to": NaN
    },
    "Heat Capacity (Liquid)": NaN,
    "Viscosity (Gas, Low P)": NaN,
    "Viscosity (Liquid)": NaN,
    "Themal Conductivity (Gas, Low P)": NaN,
    "Themal Conductivity (Liquid)": NaN,
    "Surface Tension": NaN,
    "Partial Molar Volume (VOLP)": "6.908000E-02 m^3/kg-mol",
    "Solubility Parameters (SOLP)": NaN,
    "SRK accentric factor (WSRK)": NaN,
    "COSTALD Characteristic Volume (VSTAR)": NaN,
    "Rackett parameter (ZRA)": NaN,
    "Aniline Point (ANP)": NaN,
    "H(formation,ideal gas)at 25 C": "-2.211000E+05 kJ/kg-mol",
    "G(formation,ideal gas) at 25 C": "-2.069000E+05 kJ/kg-mol",
    "Heat of Combustion, Gross form (HCB1)": NaN,
    "Heat of Combustion, Net form (HCB2)": NaN,
    "Van der Waals Volume (VDWV)": NaN,
    "Van der Waals Area (VDWA)": NaN,
    "UNIQUAC Ri Parameter (RI)": "2.353300E+00",
    "UNIQUAC Qi Parameter (QI)": "2.088000E+00",
    "Dipole Moment (DM)": "1.100000E+00 debye",
    "Radius of Gyration (GYRAD)": NaN,
    "Liquid Density (DENL)": "1.396129E-02 g-mol/cm^3",
    "Temperature of DENL (TDENL)": "2.930000E+02 K",
    "Heat of Vaporizaiton (HVAP)": NaN,
    "Temperature of HVAP (THVAP)": NaN,
    "Surface Tension (SRF)": NaN,
    "Temperature of SRF (TSRF)": NaN,
    "Dielectric Constant (DIEL)": NaN,
    "Temperature of DIEL (TDIEL)": NaN,
    "Refractive Index (RFI)": NaN,
    "Temperature of RFI (TRFI)": NaN,
    "Lower Flammability Limit(FLL)": NaN,
    "Upper Flammability Limit(FLU)": NaN,
    "Flash Point (Open Cup Method)": NaN,
    "Flash Point (Closed Cup Method)": NaN,
    "Autoignition Temperature (AIGT)": NaN,
    "NFPA Rating (Health)": NaN,
    "NFPA Rating (Fire)": NaN,
    "NFPA Rating (Safety)": NaN,
    "Class": "Halogenated Derivatives",
    "Subclass": "Other Halogenated Compounds",
    "SMILES": "C(=O)(Cl)Cl"
}