{
    "ID": "1775",
    "Name": "ACETYL CHLORIDE",
    "Synonyms": "ETHANOYL CHLORIDE, ACETIC CHLORIDE",
    "CAS No.": "75-36-5",
    "Formula": "C2H3ClO",
    "Molecular Wt. (WT)": "7.84981E+01",
    "Normal Boiling Point Temp. (TB)": "3.23900E+02 K",
    "Freezing Point Temp. (TF)": "1.60200E+02 K",
    "Triple Point Temp. (TT)": NaN,
    "Triple Point Press. (PT)": NaN,
    "Critical Temperature. (TC)": "5.08000E+02 K",
    "Critical Pressure (PC)": "5.87000E+03 kPa",
    "Critical Volume (VC)": "2.04000E-01 m^3/kg-mol",
    "Critical Compressibility (ZC)": "2.83510E-01",
    "Accentric Factor (ACCF)": "3.44000E-01",
    "Vapor Pressure": {
        "Equation Name": "KDB Correlation Equation",
        "Equation": "ln(Pvp) = A*ln(T) + B/T + C + D*T^2 where Pvp in kPa, T in K",
        "Coefficient A": "-1.892448E+01",
        "Coefficient B": "-8.104997E+03",
        "Coefficient C": "1.367420E+02",
        "Coefficient D": "2.254259E-05",
        "Coefficient E": NaN,
        "Coefficient F": NaN,
        "Coefficient G": NaN,
        "T range, from": "160.30 K",
        "T range, to": "508.00 K"
    },
    "Heat Capacity (Ideal Gas)": {
        "Equation Name": "Polynomial Equation",
        "Equation": "Cp = A + B*T + C*T^2 + D*T^3 + E*T^4  where Cp in kJ/kg-mol , T in K",
        "Coefficient A": "2.502000E+01",
        "Coefficient B": "1.711000E-01",
        "Coefficient C": "-9.856000E-05",
        "Coefficient D": "2.219E-08",
        "Coefficient E": "0",
        "Coefficient F": NaN,
        "Coefficient G": NaN,
        "T range, from": NaN,
        "T range, to": NaN
    },
    "Heat Capacity (Liquid)": NaN,
    "Viscosity (Gas, Low P)": NaN,
    "Viscosity (Liquid)": NaN,
    "Themal Conductivity (Gas, Low P)": NaN,
    "Themal Conductivity (Liquid)": NaN,
    "Surface Tension": NaN,
    "Partial Molar Volume (VOLP)": NaN,
    "Solubility Parameters (SOLP)": "1.916822E+04 (J/cm^3)^0.5",
    "SRK accentric factor (WSRK)": NaN,
    "COSTALD Characteristic Volume (VSTAR)": NaN,
    "Rackett parameter (ZRA)": NaN,
    "Aniline Point (ANP)": NaN,
    "H(formation,ideal gas)at 25 C": "-2.441000E+05 kJ/kg-mol",
    "G(formation,ideal gas) at 25 C": "-2.064000E+05 kJ/kg-mol",
    "Heat of Combustion, Gross form (HCB1)": NaN,
    "Heat of Combustion, Net form (HCB2)": NaN,
    "Van der Waals Volume (VDWV)": NaN,
    "Van der Waals Area (VDWA)": NaN,
    "UNIQUAC Ri Parameter (RI)": NaN,
    "UNIQUAC Qi Parameter (QI)": NaN,
    "Dipole Moment (DM)": "2.400000E+00 debye",
    "Radius of Gyration (GYRAD)": NaN,
    "Liquid Density (DENL)": "1.406403E-02 g-mol/cm^3",
    "Temperature of DENL (TDENL)": "2.930000E+02 K",
    "Heat of Vaporizaiton (HVAP)": "2.866000E+04 kJ/kg-mol",
    "Temperature of HVAP (THVAP)": "3.239000E+02 K",
    "Surface Tension (SRF)": NaN,
    "Temperature of SRF (TSRF)": NaN,
    "Dielectric Constant (DIEL)": NaN,
    "Temperature of DIEL (TDIEL)": NaN,
    "Refractive Index (RFI)": NaN,
    "Temperature of RFI (TRFI)": NaN,
    "Lower Flammability Limit(FLL)": NaN,
    "Upper Flammability Limit(FLU)": NaN,
    "Flash Point (Open Cup Method)": "2.775945E+02 K",
    "Flash Point (Closed Cup Method)": NaN,
    "Autoignition Temperature (AIGT)": "6.631500E+02 K",
    "NFPA Rating (Health)": "3",
    "NFPA Rating (Fire)": "3",
    "NFPA Rating (Safety)": "2",
    "Class": "Halogenated Derivatives",
    "Subclass": "Other Halogenated Compounds",
    "SMILES": "CC(=O)Cl"
}