{
    "ID": "18",
    "Name": "N-OCTADECANE",
    "Synonyms": "OCTADECANE",
    "CAS No.": "593-45-3",
    "Formula": "C18H38",
    "Molecular Wt. (WT)": "2.54498E+02",
    "Normal Boiling Point Temp. (TB)": "5.89500E+02 K",
    "Freezing Point Temp. (TF)": "3.01300E+02 K",
    "Triple Point Temp. (TT)": NaN,
    "Triple Point Press. (PT)": NaN,
    "Critical Temperature. (TC)": "7.47000E+02 K",
    "Critical Pressure (PC)": "1.29000E+03 kPa",
    "Critical Volume (VC)": "1.18900E+00 m^3/kg-mol",
    "Critical Compressibility (ZC)": "2.46953E-01",
    "Accentric Factor (ACCF)": "7.90000E-01",
    "Vapor Pressure": {
        "Equation Name": "KDB Correlation Equation",
        "Equation": "ln(Pvp) = A*ln(T) + B/T + C + D*T^2 where Pvp in kPa, T in K",
        "Coefficient A": "-2.147560E+01",
        "Coefficient B": "-1.699877E+04",
        "Coefficient C": "1.680244E+02",
        "Coefficient D": "6.994098E-06",
        "Coefficient E": NaN,
        "Coefficient F": NaN,
        "Coefficient G": NaN,
        "T range, from": "301.33 K",
        "T range, to": "745.26 K"
    },
    "Heat Capacity (Ideal Gas)": {
        "Equation Name": "Polynomial Equation",
        "Equation": "Cp = A + B*T + C*T^2 + D*T^3 + E*T^4  where Cp in kJ/kg-mol , T in K",
        "Coefficient A": "1.980797E+02",
        "Coefficient B": "-2.727298E-02",
        "Coefficient C": "3.989305E-03",
        "Coefficient D": "-5.538214E-06",
        "Coefficient E": "2.326307E-09",
        "Coefficient F": NaN,
        "Coefficient G": NaN,
        "T range, from": NaN,
        "T range, to": NaN
    },
    "Heat Capacity (Liquid)": NaN,
    "Viscosity (Gas, Low P)": NaN,
    "Viscosity (Liquid)": {
        "Equation Name": "Andrade Equation",
        "Equation": "ln (VISL) = A + B/ T  where T in K and VISL in cP.",
        "Coefficient A": "-4.649",
        "Coefficient B": "1790",
        "Coefficient C": "0",
        "Coefficient D": "0",
        "Coefficient E": NaN,
        "Coefficient F": NaN,
        "Coefficient G": NaN,
        "T range, from": "303.15 K",
        "T range, to": "573.15 K"
    },
    "Themal Conductivity (Gas, Low P)": NaN,
    "Themal Conductivity (Liquid)": NaN,
    "Surface Tension": NaN,
    "Partial Molar Volume (VOLP)": NaN,
    "Solubility Parameters (SOLP)": "1.644364E+04 (J/cm^3)^0.5",
    "SRK accentric factor (WSRK)": "8.124000E-01",
    "COSTALD Characteristic Volume (VSTAR)": "1.198900E+00 m^3/kg-mol",
    "Rackett parameter (ZRA)": "2.275000E-01",
    "Aniline Point (ANP)": NaN,
    "H(formation,ideal gas)at 25 C": "-4.148000E+05 kJ/kg-mol",
    "G(formation,ideal gas) at 25 C": "1.006000E+05 kJ/kg-mol",
    "Heat of Combustion, Gross form (HCB1)": NaN,
    "Heat of Combustion, Net form (HCB2)": NaN,
    "Van der Waals Volume (VDWV)": NaN,
    "Van der Waals Area (VDWA)": NaN,
    "UNIQUAC Ri Parameter (RI)": NaN,
    "UNIQUAC Qi Parameter (QI)": NaN,
    "Dipole Moment (DM)": NaN,
    "Radius of Gyration (GYRAD)": NaN,
    "Liquid Density (DENL)": "3.053067E-03 g-mol/cm^3",
    "Temperature of DENL (TDENL)": "3.010000E+02 K",
    "Heat of Vaporizaiton (HVAP)": "5.447600E+04 kJ/kg-mol",
    "Temperature of HVAP (THVAP)": "5.895000E+02 K",
    "Surface Tension (SRF)": NaN,
    "Temperature of SRF (TSRF)": NaN,
    "Dielectric Constant (DIEL)": NaN,
    "Temperature of DIEL (TDIEL)": NaN,
    "Refractive Index (RFI)": NaN,
    "Temperature of RFI (TRFI)": NaN,
    "Lower Flammability Limit(FLL)": NaN,
    "Upper Flammability Limit(FLU)": NaN,
    "Flash Point (Open Cup Method)": NaN,
    "Flash Point (Closed Cup Method)": NaN,
    "Autoignition Temperature (AIGT)": NaN,
    "NFPA Rating (Health)": NaN,
    "NFPA Rating (Fire)": NaN,
    "NFPA Rating (Safety)": NaN,
    "Class": "Paraffinic Hydrocarbons",
    "Subclass": "n-Alkanes",
    "SMILES": "CCCCCCCCCCCCCCCCCC"
}