{
    "ID": "1811",
    "Name": "METHANETHIOL",
    "Synonyms": "METHYL MERCAPTAN, METHYL THIOALCOHOL, MERCAPTOMETHANE",
    "CAS No.": "74-93-1",
    "Formula": "CH4S",
    "Molecular Wt. (WT)": "4.81026E+01",
    "Normal Boiling Point Temp. (TB)": "2.79110E+02 K",
    "Freezing Point Temp. (TF)": "1.50000E+02 K",
    "Triple Point Temp. (TT)": NaN,
    "Triple Point Press. (PT)": NaN,
    "Critical Temperature. (TC)": "4.70000E+02 K",
    "Critical Pressure (PC)": "7.23000E+03 kPa",
    "Critical Volume (VC)": "1.45000E-01 m^3/kg-mol",
    "Critical Compressibility (ZC)": "2.68270E-01",
    "Accentric Factor (ACCF)": "1.53000E-01",
    "Vapor Pressure": {
        "Equation Name": "KDB Correlation Equation",
        "Equation": "ln(Pvp) = A*ln(T) + B/T + C + D*T^2 where Pvp in kPa, T in K",
        "Coefficient A": "-1.199684E+01",
        "Coefficient B": "-5.806262E+03",
        "Coefficient C": "9.186839E+01",
        "Coefficient D": "1.441874E-05",
        "Coefficient E": NaN,
        "Coefficient F": NaN,
        "Coefficient G": NaN,
        "T range, from": "150.18 K",
        "T range, to": "470.00 K"
    },
    "Heat Capacity (Ideal Gas)": {
        "Equation Name": "Polynomial Equation",
        "Equation": "Cp = A + B*T + C*T^2 + D*T^3 + E*T^4  where Cp in kJ/kg-mol , T in K",
        "Coefficient A": "1.327000E+01",
        "Coefficient B": "1.475000E-01",
        "Coefficient C": "-8.545000E-05",
        "Coefficient D": "2.075E-08",
        "Coefficient E": "0",
        "Coefficient F": NaN,
        "Coefficient G": NaN,
        "T range, from": NaN,
        "T range, to": NaN
    },
    "Heat Capacity (Liquid)": NaN,
    "Viscosity (Gas, Low P)": NaN,
    "Viscosity (Liquid)": NaN,
    "Themal Conductivity (Gas, Low P)": NaN,
    "Themal Conductivity (Liquid)": NaN,
    "Surface Tension": NaN,
    "Partial Molar Volume (VOLP)": NaN,
    "Solubility Parameters (SOLP)": "1.943413E+04 (J/cm^3)^0.5",
    "SRK accentric factor (WSRK)": "1.567000E-01",
    "COSTALD Characteristic Volume (VSTAR)": "1.508000E-01 m^3/kg-mol",
    "Rackett parameter (ZRA)": "2.781000E-01",
    "Aniline Point (ANP)": NaN,
    "H(formation,ideal gas)at 25 C": "-2.299000E+04 kJ/kg-mol",
    "G(formation,ideal gas) at 25 C": "-9.923000E+03 kJ/kg-mol",
    "Heat of Combustion, Gross form (HCB1)": NaN,
    "Heat of Combustion, Net form (HCB2)": NaN,
    "Van der Waals Volume (VDWV)": NaN,
    "Van der Waals Area (VDWA)": NaN,
    "UNIQUAC Ri Parameter (RI)": NaN,
    "UNIQUAC Qi Parameter (QI)": NaN,
    "Dipole Moment (DM)": "1.300000E+00 debye",
    "Radius of Gyration (GYRAD)": NaN,
    "Liquid Density (DENL)": "1.800318E-02 g-mol/cm^3",
    "Temperature of DENL (TDENL)": "2.930000E+02 K",
    "Heat of Vaporizaiton (HVAP)": "2.456000E+04 kJ/kg-mol",
    "Temperature of HVAP (THVAP)": "2.791000E+02 K",
    "Surface Tension (SRF)": "2.470000E+01 dyn/cm",
    "Temperature of SRF (TSRF)": "2.932000E+02 K",
    "Dielectric Constant (DIEL)": NaN,
    "Temperature of DIEL (TDIEL)": NaN,
    "Refractive Index (RFI)": NaN,
    "Temperature of RFI (TRFI)": NaN,
    "Lower Flammability Limit(FLL)": NaN,
    "Upper Flammability Limit(FLU)": NaN,
    "Flash Point (Open Cup Method)": NaN,
    "Flash Point (Closed Cup Method)": NaN,
    "Autoignition Temperature (AIGT)": NaN,
    "NFPA Rating (Health)": NaN,
    "NFPA Rating (Fire)": NaN,
    "NFPA Rating (Safety)": NaN,
    "Class": "Sulfur Derivatives",
    "Subclass": "Aliphatic Sulfide",
    "SMILES": "CS"
}