{
    "ID": "1812",
    "Name": "CARBON DISULFIDE",
    "Synonyms": "CARBON BISULFIDE, DITHIOCARBONIC ANHYDRIDE",
    "CAS No.": "75-15-0",
    "Formula": "CS2",
    "Molecular Wt. (WT)": "7.61310E+01",
    "Normal Boiling Point Temp. (TB)": "3.19000E+02 K",
    "Freezing Point Temp. (TF)": "1.61600E+02 K",
    "Triple Point Temp. (TT)": NaN,
    "Triple Point Press. (PT)": NaN,
    "Critical Temperature. (TC)": "5.52000E+02 K",
    "Critical Pressure (PC)": "7.90000E+03 kPa",
    "Critical Volume (VC)": "1.73000E-01 m^3/kg-mol",
    "Critical Compressibility (ZC)": "2.97781E-01",
    "Accentric Factor (ACCF)": "1.09000E-01",
    "Vapor Pressure": {
        "Equation Name": "KDB Correlation Equation",
        "Equation": "ln(Pvp) = A*ln(T) + B/T + C + D*T^2 where Pvp in kPa, T in K",
        "Coefficient A": "-4.817221E+00",
        "Coefficient B": "-4.563180E+03",
        "Coefficient C": "4.619124E+01",
        "Coefficient D": "4.829056E-06",
        "Coefficient E": NaN,
        "Coefficient F": NaN,
        "Coefficient G": NaN,
        "T range, from": "161.58 K",
        "T range, to": "552.00 K"
    },
    "Heat Capacity (Ideal Gas)": {
        "Equation Name": "Polynomial Equation",
        "Equation": "Cp = A + B*T + C*T^2 + D*T^3 + E*T^4  where Cp in kJ/kg-mol , T in K",
        "Coefficient A": "2.744000E+01",
        "Coefficient B": "8.127000E-02",
        "Coefficient C": "-7.666000E-05",
        "Coefficient D": "2.673E-08",
        "Coefficient E": "0",
        "Coefficient F": NaN,
        "Coefficient G": NaN,
        "T range, from": NaN,
        "T range, to": NaN
    },
    "Heat Capacity (Liquid)": NaN,
    "Viscosity (Gas, Low P)": NaN,
    "Viscosity (Liquid)": {
        "Equation Name": "Andrade Equation",
        "Equation": "ln (VISL) = A + B/ T  where T in K and VISL in cP.",
        "Coefficient A": "-3.442",
        "Coefficient B": "713.8",
        "Coefficient C": "0",
        "Coefficient D": "0",
        "Coefficient E": NaN,
        "Coefficient F": NaN,
        "Coefficient G": NaN,
        "T range, from": "260.15 K",
        "T range, to": "313.15 K"
    },
    "Themal Conductivity (Gas, Low P)": NaN,
    "Themal Conductivity (Liquid)": NaN,
    "Surface Tension": NaN,
    "Partial Molar Volume (VOLP)": "6.065000E-02 m^3/kg-mol",
    "Solubility Parameters (SOLP)": NaN,
    "SRK accentric factor (WSRK)": "1.035000E-01",
    "COSTALD Characteristic Volume (VSTAR)": "1.690000E-01 m^3/kg-mol",
    "Rackett parameter (ZRA)": "2.808000E-01",
    "Aniline Point (ANP)": NaN,
    "H(formation,ideal gas)at 25 C": "1.171000E+05 kJ/kg-mol",
    "G(formation,ideal gas) at 25 C": "6.695000E+04 kJ/kg-mol",
    "Heat of Combustion, Gross form (HCB1)": NaN,
    "Heat of Combustion, Net form (HCB2)": NaN,
    "Van der Waals Volume (VDWV)": NaN,
    "Van der Waals Area (VDWA)": NaN,
    "UNIQUAC Ri Parameter (RI)": "2.057000E+00",
    "UNIQUAC Qi Parameter (QI)": "1.650000E+00",
    "Dipole Moment (DM)": "0.000000E+00 debye",
    "Radius of Gyration (GYRAD)": "1.424000E+00",
    "Liquid Density (DENL)": "1.698388E-02 g-mol/cm^3",
    "Temperature of DENL (TDENL)": "2.730000E+02 K",
    "Heat of Vaporizaiton (HVAP)": "2.673600E+04 kJ/kg-mol",
    "Temperature of HVAP (THVAP)": "3.190000E+02 K",
    "Surface Tension (SRF)": "3.232000E+01 dyn/cm",
    "Temperature of SRF (TSRF)": "2.932000E+02 K",
    "Dielectric Constant (DIEL)": NaN,
    "Temperature of DIEL (TDIEL)": NaN,
    "Refractive Index (RFI)": NaN,
    "Temperature of RFI (TRFI)": NaN,
    "Lower Flammability Limit(FLL)": "1.300000E+00 % in Air",
    "Upper Flammability Limit(FLU)": "5.000000E+01 % in Air",
    "Flash Point (Open Cup Method)": "2.431500E+02 K",
    "Flash Point (Closed Cup Method)": NaN,
    "Autoignition Temperature (AIGT)": "3.731500E+02 K",
    "NFPA Rating (Health)": "2",
    "NFPA Rating (Fire)": "3",
    "NFPA Rating (Safety)": NaN,
    "Class": "Sulfur Derivatives",
    "Subclass": "Aliphatic Sulfide",
    "SMILES": "C(=S)=S"
}