{
    "ID": "1813",
    "Name": "ETHANETHIOL",
    "Synonyms": "ETHYL MERCAPTAN, ETHYL THIOALCOHOL",
    "CAS No.": "75-08-1",
    "Formula": "C2H6S",
    "Molecular Wt. (WT)": "6.21294E+01",
    "Normal Boiling Point Temp. (TB)": "3.08200E+02 K",
    "Freezing Point Temp. (TF)": "1.25260E+02 K",
    "Triple Point Temp. (TT)": NaN,
    "Triple Point Press. (PT)": NaN,
    "Critical Temperature. (TC)": "4.99000E+02 K",
    "Critical Pressure (PC)": "5.49000E+03 kPa",
    "Critical Volume (VC)": "2.07000E-01 m^3/kg-mol",
    "Critical Compressibility (ZC)": "2.73908E-01",
    "Accentric Factor (ACCF)": "1.91000E-01",
    "Vapor Pressure": {
        "Equation Name": "KDB Correlation Equation",
        "Equation": "ln(Pvp) = A*ln(T) + B/T + C + D*T^2 where Pvp in kPa, T in K",
        "Coefficient A": "-7.367560E+00",
        "Coefficient B": "-5.162821E+03",
        "Coefficient C": "6.289035E+01",
        "Coefficient D": "7.377082E-06",
        "Coefficient E": NaN,
        "Coefficient F": NaN,
        "Coefficient G": NaN,
        "T range, from": "125.26 K",
        "T range, to": "499.15 K"
    },
    "Heat Capacity (Ideal Gas)": {
        "Equation Name": "Polynomial Equation",
        "Equation": "Cp = A + B*T + C*T^2 + D*T^3 + E*T^4  where Cp in kJ/kg-mol , T in K",
        "Coefficient A": "1.492000E+01",
        "Coefficient B": "2.351000E-01",
        "Coefficient C": "-1.356000E-04",
        "Coefficient D": "3.162E-08",
        "Coefficient E": "0",
        "Coefficient F": NaN,
        "Coefficient G": NaN,
        "T range, from": NaN,
        "T range, to": NaN
    },
    "Heat Capacity (Liquid)": NaN,
    "Viscosity (Gas, Low P)": NaN,
    "Viscosity (Liquid)": NaN,
    "Themal Conductivity (Gas, Low P)": NaN,
    "Themal Conductivity (Liquid)": NaN,
    "Surface Tension": NaN,
    "Partial Molar Volume (VOLP)": NaN,
    "Solubility Parameters (SOLP)": "1.814957E+04 (J/cm^3)^0.5",
    "SRK accentric factor (WSRK)": "1.915000E-01",
    "COSTALD Characteristic Volume (VSTAR)": "2.023000E-01 m^3/kg-mol",
    "Rackett parameter (ZRA)": "2.704000E-01",
    "Aniline Point (ANP)": NaN,
    "H(formation,ideal gas)at 25 C": "-4.614000E+04 kJ/kg-mol",
    "G(formation,ideal gas) at 25 C": "-4.670000E+03 kJ/kg-mol",
    "Heat of Combustion, Gross form (HCB1)": NaN,
    "Heat of Combustion, Net form (HCB2)": NaN,
    "Van der Waals Volume (VDWV)": NaN,
    "Van der Waals Area (VDWA)": NaN,
    "UNIQUAC Ri Parameter (RI)": NaN,
    "UNIQUAC Qi Parameter (QI)": NaN,
    "Dipole Moment (DM)": "1.500000E+00 debye",
    "Radius of Gyration (GYRAD)": NaN,
    "Liquid Density (DENL)": "1.350407E-02 g-mol/cm^3",
    "Temperature of DENL (TDENL)": "2.930000E+02 K",
    "Heat of Vaporizaiton (HVAP)": "2.677800E+04 kJ/kg-mol",
    "Temperature of HVAP (THVAP)": "3.087000E+02 K",
    "Surface Tension (SRF)": NaN,
    "Temperature of SRF (TSRF)": NaN,
    "Dielectric Constant (DIEL)": NaN,
    "Temperature of DIEL (TDIEL)": NaN,
    "Refractive Index (RFI)": NaN,
    "Temperature of RFI (TRFI)": NaN,
    "Lower Flammability Limit(FLL)": NaN,
    "Upper Flammability Limit(FLU)": NaN,
    "Flash Point (Open Cup Method)": NaN,
    "Flash Point (Closed Cup Method)": NaN,
    "Autoignition Temperature (AIGT)": NaN,
    "NFPA Rating (Health)": NaN,
    "NFPA Rating (Fire)": NaN,
    "NFPA Rating (Safety)": NaN,
    "Class": "Sulfur Derivatives",
    "Subclass": "Aliphatic Sulfide",
    "SMILES": "CCS"
}