{
    "ID": "1814",
    "Name": "DIMETHYL SULFIDE",
    "Synonyms": "THIOBISMETHANE, DIMETHYL THIOETHER, DMS",
    "CAS No.": "75-18-3",
    "Formula": "C2H6S",
    "Molecular Wt. (WT)": "6.21294E+01",
    "Normal Boiling Point Temp. (TB)": "3.10480E+02 K",
    "Freezing Point Temp. (TF)": "1.74800E+02 K",
    "Triple Point Temp. (TT)": NaN,
    "Triple Point Press. (PT)": NaN,
    "Critical Temperature. (TC)": "5.03000E+02 K",
    "Critical Pressure (PC)": "5.53000E+03 kPa",
    "Critical Volume (VC)": "2.01000E-01 m^3/kg-mol",
    "Critical Compressibility (ZC)": "2.65776E-01",
    "Accentric Factor (ACCF)": "1.91000E-01",
    "Vapor Pressure": {
        "Equation Name": "KDB Correlation Equation",
        "Equation": "ln(Pvp) = A*ln(T) + B/T + C + D*T^2 where Pvp in kPa, T in K",
        "Coefficient A": "-6.215814E+00",
        "Coefficient B": "-4.971131E+03",
        "Coefficient C": "5.577116E+01",
        "Coefficient D": "5.435875E-06",
        "Coefficient E": NaN,
        "Coefficient F": NaN,
        "Coefficient G": NaN,
        "T range, from": "174.88 K",
        "T range, to": "503.04 K"
    },
    "Heat Capacity (Ideal Gas)": {
        "Equation Name": "Polynomial Equation",
        "Equation": "Cp = A + B*T + C*T^2 + D*T^3 + E*T^4  where Cp in kJ/kg-mol , T in K",
        "Coefficient A": "2.430000E+01",
        "Coefficient B": "1.875000E-01",
        "Coefficient C": "-6.875000E-05",
        "Coefficient D": "4.099E-09",
        "Coefficient E": "0",
        "Coefficient F": NaN,
        "Coefficient G": NaN,
        "T range, from": NaN,
        "T range, to": NaN
    },
    "Heat Capacity (Liquid)": NaN,
    "Viscosity (Gas, Low P)": NaN,
    "Viscosity (Liquid)": NaN,
    "Themal Conductivity (Gas, Low P)": NaN,
    "Themal Conductivity (Liquid)": NaN,
    "Surface Tension": NaN,
    "Partial Molar Volume (VOLP)": NaN,
    "Solubility Parameters (SOLP)": "1.814343E+04 (J/cm^3)^0.5",
    "SRK accentric factor (WSRK)": "1.936000E-01",
    "COSTALD Characteristic Volume (VSTAR)": "2.010000E-01 m^3/kg-mol",
    "Rackett parameter (ZRA)": "2.692000E-01",
    "Aniline Point (ANP)": NaN,
    "H(formation,ideal gas)at 25 C": "-3.756000E+04 kJ/kg-mol",
    "G(formation,ideal gas) at 25 C": "6.950000E+03 kJ/kg-mol",
    "Heat of Combustion, Gross form (HCB1)": NaN,
    "Heat of Combustion, Net form (HCB2)": NaN,
    "Van der Waals Volume (VDWV)": NaN,
    "Van der Waals Area (VDWA)": NaN,
    "UNIQUAC Ri Parameter (RI)": NaN,
    "UNIQUAC Qi Parameter (QI)": NaN,
    "Dipole Moment (DM)": "1.500000E+00 debye",
    "Radius of Gyration (GYRAD)": NaN,
    "Liquid Density (DENL)": "1.364893E-02 g-mol/cm^3",
    "Temperature of DENL (TDENL)": "2.930000E+02 K",
    "Heat of Vaporizaiton (HVAP)": "2.694500E+04 kJ/kg-mol",
    "Temperature of HVAP (THVAP)": "3.107000E+02 K",
    "Surface Tension (SRF)": "2.446000E+01 dyn/cm",
    "Temperature of SRF (TSRF)": "2.932000E+02 K",
    "Dielectric Constant (DIEL)": NaN,
    "Temperature of DIEL (TDIEL)": NaN,
    "Refractive Index (RFI)": NaN,
    "Temperature of RFI (TRFI)": NaN,
    "Lower Flammability Limit(FLL)": NaN,
    "Upper Flammability Limit(FLU)": NaN,
    "Flash Point (Open Cup Method)": NaN,
    "Flash Point (Closed Cup Method)": NaN,
    "Autoignition Temperature (AIGT)": NaN,
    "NFPA Rating (Health)": 4.0,
    "NFPA Rating (Fire)": 4.0,
    "NFPA Rating (Safety)": NaN,
    "Class": "Sulfur Derivatives",
    "Subclass": "Aliphatic Sulfide",
    "SMILES": "CSC"
}