{
    "ID": "1825",
    "Name": "DIETHYL SULFIDE",
    "Synonyms": "3-THIAPENTANE, 1,1'-THIOBISETHANE, DIETHYL THIOETHER",
    "CAS No.": "352-93-2",
    "Formula": "C4H10S",
    "Molecular Wt. (WT)": "9.01830E+01",
    "Normal Boiling Point Temp. (TB)": "3.65200E+02 K",
    "Freezing Point Temp. (TF)": "1.69200E+02 K",
    "Triple Point Temp. (TT)": "1.69200E+02 K",
    "Triple Point Press. (PT)": NaN,
    "Critical Temperature. (TC)": "5.57000E+02 K",
    "Critical Pressure (PC)": "3.96000E+03 kPa",
    "Critical Volume (VC)": "3.18000E-01 m^3/kg-mol",
    "Critical Compressibility (ZC)": "2.71913E-01",
    "Accentric Factor (ACCF)": "2.92000E-01",
    "Vapor Pressure": {
        "Equation Name": "KDB Correlation Equation",
        "Equation": "ln(Pvp) = A*ln(T) + B/T + C + D*T^2 where Pvp in kPa, T in K",
        "Coefficient A": "-7.568182E+00",
        "Coefficient B": "-6.296761E+03",
        "Coefficient C": "6.583846E+01",
        "Coefficient D": "5.036132E-06",
        "Coefficient E": NaN,
        "Coefficient F": NaN,
        "Coefficient G": NaN,
        "T range, from": "169.20 K",
        "T range, to": "557.15 K"
    },
    "Heat Capacity (Ideal Gas)": {
        "Equation Name": "Polynomial Equation",
        "Equation": "Cp = A + B*T + C*T^2 + D*T^3 + E*T^4  where Cp in kJ/kg-mol , T in K",
        "Coefficient A": "1.359000E+01",
        "Coefficient B": "3.959000E-01",
        "Coefficient C": "-1.780000E-04",
        "Coefficient D": "2.649E-08",
        "Coefficient E": "0",
        "Coefficient F": NaN,
        "Coefficient G": NaN,
        "T range, from": NaN,
        "T range, to": NaN
    },
    "Heat Capacity (Liquid)": NaN,
    "Viscosity (Gas, Low P)": NaN,
    "Viscosity (Liquid)": {
        "Equation Name": "Andrade Equation",
        "Equation": "ln (VISL) = A + B/ T  where T in K and VISL in cP.",
        "Coefficient A": "-3.925",
        "Coefficient B": "915.6",
        "Coefficient C": "0",
        "Coefficient D": "0",
        "Coefficient E": NaN,
        "Coefficient F": NaN,
        "Coefficient G": NaN,
        "T range, from": "273.15 K",
        "T range, to": "361.15 K"
    },
    "Themal Conductivity (Gas, Low P)": NaN,
    "Themal Conductivity (Liquid)": NaN,
    "Surface Tension": NaN,
    "Partial Molar Volume (VOLP)": NaN,
    "Solubility Parameters (SOLP)": "1.733138E+04 (J/cm^3)^0.5",
    "SRK accentric factor (WSRK)": "2.938000E-01",
    "COSTALD Characteristic Volume (VSTAR)": "3.137000E-01 m^3/kg-mol",
    "Rackett parameter (ZRA)": "2.671000E-01",
    "Aniline Point (ANP)": NaN,
    "H(formation,ideal gas)at 25 C": "-8.353000E+04 kJ/kg-mol",
    "G(formation,ideal gas) at 25 C": "1.780000E+04 kJ/kg-mol",
    "Heat of Combustion, Gross form (HCB1)": NaN,
    "Heat of Combustion, Net form (HCB2)": NaN,
    "Van der Waals Volume (VDWV)": NaN,
    "Van der Waals Area (VDWA)": NaN,
    "UNIQUAC Ri Parameter (RI)": NaN,
    "UNIQUAC Qi Parameter (QI)": NaN,
    "Dipole Moment (DM)": "1.600000E+00 debye",
    "Radius of Gyration (GYRAD)": NaN,
    "Liquid Density (DENL)": "9.281129E-03 g-mol/cm^3",
    "Temperature of DENL (TDENL)": "2.930000E+02 K",
    "Heat of Vaporizaiton (HVAP)": "3.175700E+04 kJ/kg-mol",
    "Temperature of HVAP (THVAP)": "3.653000E+02 K",
    "Surface Tension (SRF)": "2.509000E+01 dyn/cm",
    "Temperature of SRF (TSRF)": "2.982000E+02 K",
    "Dielectric Constant (DIEL)": NaN,
    "Temperature of DIEL (TDIEL)": NaN,
    "Refractive Index (RFI)": NaN,
    "Temperature of RFI (TRFI)": NaN,
    "Lower Flammability Limit(FLL)": NaN,
    "Upper Flammability Limit(FLU)": NaN,
    "Flash Point (Open Cup Method)": NaN,
    "Flash Point (Closed Cup Method)": NaN,
    "Autoignition Temperature (AIGT)": NaN,
    "NFPA Rating (Health)": NaN,
    "NFPA Rating (Fire)": NaN,
    "NFPA Rating (Safety)": NaN,
    "Class": "Sulfur Derivatives",
    "Subclass": "Aliphatic Sulfide",
    "SMILES": "CCSCC"
}