{
    "ID": "1826",
    "Name": "DIETHYL DISULFIDE",
    "Synonyms": "ETHYLDITHIOETHANE",
    "CAS No.": "110-81-6",
    "Formula": "C4H10S2",
    "Molecular Wt. (WT)": "1.22243E+02",
    "Normal Boiling Point Temp. (TB)": "4.26700E+02 K",
    "Freezing Point Temp. (TF)": "1.71700E+02 K",
    "Triple Point Temp. (TT)": NaN,
    "Triple Point Press. (PT)": NaN,
    "Critical Temperature. (TC)": "6.42100E+02 K",
    "Critical Pressure (PC)": NaN,
    "Critical Volume (VC)": NaN,
    "Critical Compressibility (ZC)": NaN,
    "Accentric Factor (ACCF)": NaN,
    "Vapor Pressure": {
        "Equation Name": "KDB Correlation Equation",
        "Equation": "ln(Pvp) = A*ln(T) + B/T + C + D*T^2 where Pvp in kPa, T in K",
        "Coefficient A": "-9.077393E+00",
        "Coefficient B": "-7.896267E+03",
        "Coefficient C": "7.721399E+01",
        "Coefficient D": "4.785763E-06",
        "Coefficient E": NaN,
        "Coefficient F": NaN,
        "Coefficient G": NaN,
        "T range, from": "171.63 K",
        "T range, to": "642.00 K"
    },
    "Heat Capacity (Ideal Gas)": {
        "Equation Name": "Polynomial Equation",
        "Equation": "Cp = A + B*T + C*T^2 + D*T^3 + E*T^4  where Cp in kJ/kg-mol , T in K",
        "Coefficient A": "2.690000E+01",
        "Coefficient B": "4.601000E-01",
        "Coefficient C": "-2.710000E-04",
        "Coefficient D": "5.97E-08",
        "Coefficient E": "0",
        "Coefficient F": NaN,
        "Coefficient G": NaN,
        "T range, from": NaN,
        "T range, to": NaN
    },
    "Heat Capacity (Liquid)": NaN,
    "Viscosity (Gas, Low P)": NaN,
    "Viscosity (Liquid)": NaN,
    "Themal Conductivity (Gas, Low P)": NaN,
    "Themal Conductivity (Liquid)": NaN,
    "Surface Tension": NaN,
    "Partial Molar Volume (VOLP)": NaN,
    "Solubility Parameters (SOLP)": "1.845230E+04 (J/cm^3)^0.5",
    "SRK accentric factor (WSRK)": "3.424000E-01",
    "COSTALD Characteristic Volume (VSTAR)": "3.803000E-01 m^3/kg-mol",
    "Rackett parameter (ZRA)": "2.694000E-01",
    "Aniline Point (ANP)": NaN,
    "H(formation,ideal gas)at 25 C": "-7.469000E+04 kJ/kg-mol",
    "G(formation,ideal gas) at 25 C": "2.227000E+04 kJ/kg-mol",
    "Heat of Combustion, Gross form (HCB1)": NaN,
    "Heat of Combustion, Net form (HCB2)": NaN,
    "Van der Waals Volume (VDWV)": NaN,
    "Van der Waals Area (VDWA)": NaN,
    "UNIQUAC Ri Parameter (RI)": NaN,
    "UNIQUAC Qi Parameter (QI)": NaN,
    "Dipole Moment (DM)": "2.000000E+00 debye",
    "Radius of Gyration (GYRAD)": NaN,
    "Liquid Density (DENL)": "8.164067E-03 g-mol/cm^3",
    "Temperature of DENL (TDENL)": "2.930000E+02 K",
    "Heat of Vaporizaiton (HVAP)": "3.769800E+04 kJ/kg-mol",
    "Temperature of HVAP (THVAP)": "4.267000E+02 K",
    "Surface Tension (SRF)": "3.091000E+01 dyn/cm",
    "Temperature of SRF (TSRF)": "2.932000E+02 K",
    "Dielectric Constant (DIEL)": NaN,
    "Temperature of DIEL (TDIEL)": NaN,
    "Refractive Index (RFI)": NaN,
    "Temperature of RFI (TRFI)": NaN,
    "Lower Flammability Limit(FLL)": NaN,
    "Upper Flammability Limit(FLU)": NaN,
    "Flash Point (Open Cup Method)": NaN,
    "Flash Point (Closed Cup Method)": NaN,
    "Autoignition Temperature (AIGT)": NaN,
    "NFPA Rating (Health)": NaN,
    "NFPA Rating (Fire)": NaN,
    "NFPA Rating (Safety)": NaN,
    "Class": "Sulfur Derivatives",
    "Subclass": "Aliphatic Sulfide",
    "SMILES": "CCSSCC"
}