{
    "ID": "184",
    "Name": "ETHYLENE",
    "Synonyms": "ETHENE, ACETENE, ELAYL",
    "CAS No.": "74-85-1",
    "Formula": "C2H4",
    "Molecular Wt. (WT)": "2.80536E+01",
    "Normal Boiling Point Temp. (TB)": "1.69380E+02 K",
    "Freezing Point Temp. (TF)": "1.04000E+02 K",
    "Triple Point Temp. (TT)": NaN,
    "Triple Point Press. (PT)": NaN,
    "Critical Temperature. (TC)": "2.82340E+02 K",
    "Critical Pressure (PC)": "5.04100E+03 kPa",
    "Critical Volume (VC)": "1.31100E-01 m^3/kg-mol",
    "Critical Compressibility (ZC)": "2.81521E-01",
    "Accentric Factor (ACCF)": "8.90000E-02",
    "Vapor Pressure": {
        "Equation Name": "KDB Correlation Equation",
        "Equation": "ln(Pvp) = A*ln(T) + B/T + C + D*T^2 where Pvp in kPa, T in K",
        "Coefficient A": "-4.898431E+00",
        "Coefficient B": "-2.355767E+03",
        "Coefficient C": "4.319906E+01",
        "Coefficient D": "1.641422E-05",
        "Coefficient E": NaN,
        "Coefficient F": NaN,
        "Coefficient G": NaN,
        "T range, from": "104.01 K",
        "T range, to": "282.36 K"
    },
    "Heat Capacity (Ideal Gas)": {
        "Equation Name": "Polynomial Equation",
        "Equation": "Cp = A + B*T + C*T^2 + D*T^3 + E*T^4  where Cp in kJ/kg-mol , T in K",
        "Coefficient A": "1.756229E+01",
        "Coefficient B": "6.922210E-02",
        "Coefficient C": "9.356684E-05",
        "Coefficient D": "-1.292936E-07",
        "Coefficient E": "4.293757E-11",
        "Coefficient F": NaN,
        "Coefficient G": NaN,
        "T range, from": NaN,
        "T range, to": NaN
    },
    "Heat Capacity (Liquid)": {
        "Equation Name": "Polynomial Equation",
        "Equation": "Cp = A + B*T + C*T^2 + D*T^3  where T in K and Cp in kJ/kg-mol.K",
        "Coefficient A": "39.9314",
        "Coefficient B": ".7298456",
        "Coefficient C": "-5.882898E-03",
        "Coefficient D": "1.482462E-05",
        "Coefficient E": NaN,
        "Coefficient F": NaN,
        "Coefficient G": NaN,
        "T range, from": "104.15 K",
        "T range, to": "233.15 K"
    },
    "Viscosity (Gas, Low P)": {
        "Equation Name": "Polynomial Equation",
        "Equation": "VISG = A + B*T + C*T^2 where T in K and VISG in cP",
        "Coefficient A": ".0003586",
        "Coefficient B": "3.513E-05",
        "Coefficient C": "-8.055E-09",
        "Coefficient D": "0",
        "Coefficient E": NaN,
        "Coefficient F": NaN,
        "Coefficient G": NaN,
        "T range, from": "173.15 K",
        "T range, to": "1073.15 K"
    },
    "Viscosity (Liquid)": {
        "Equation Name": "Quasipolynomial Equation",
        "Equation": "ln (VISL) = A + B/T + C*T + D*T^2  where T in K and VISL in cP.",
        "Coefficient A": "-17.74",
        "Coefficient B": "1078",
        "Coefficient C": ".08577",
        "Coefficient D": "-.0001758",
        "Coefficient E": NaN,
        "Coefficient F": NaN,
        "Coefficient G": NaN,
        "T range, from": "104.15 K",
        "T range, to": "282.15 K"
    },
    "Themal Conductivity (Gas, Low P)": {
        "Equation Name": "Polynomial Equation",
        "Equation": "THG = A + B*T + C*T^2 + D*T^3  where T in K and THG in W/m.K",
        "Coefficient A": "-.0176",
        "Coefficient B": ".00012",
        "Coefficient C": "3.335E-08",
        "Coefficient D": "-1.366E-11",
        "Coefficient E": NaN,
        "Coefficient F": NaN,
        "Coefficient G": NaN,
        "T range, from": "200 K",
        "T range, to": "1270 K"
    },
    "Themal Conductivity (Liquid)": {
        "Equation Name": "Polynomial Equation",
        "Equation": "THL = A + B*T + C*T^2 + D*T^3  where T in K and THL in W/m.K",
        "Coefficient A": ".3565",
        "Coefficient B": "-.0009586",
        "Coefficient C": "-1.972E-07",
        "Coefficient D": "0",
        "Coefficient E": NaN,
        "Coefficient F": NaN,
        "Coefficient G": NaN,
        "T range, from": "104 K",
        "T range, to": "269 K"
    },
    "Surface Tension": NaN,
    "Partial Molar Volume (VOLP)": NaN,
    "Solubility Parameters (SOLP)": "1.243653E+04 (J/cm^3)^0.5",
    "SRK accentric factor (WSRK)": "8.820000E-02",
    "COSTALD Characteristic Volume (VSTAR)": "1.310000E-01 m^3/kg-mol",
    "Rackett parameter (ZRA)": "2.815000E-01",
    "Aniline Point (ANP)": NaN,
    "H(formation,ideal gas)at 25 C": "5.234000E+04 kJ/kg-mol",
    "G(formation,ideal gas) at 25 C": "6.816000E+04 kJ/kg-mol",
    "Heat of Combustion, Gross form (HCB1)": NaN,
    "Heat of Combustion, Net form (HCB2)": NaN,
    "Van der Waals Volume (VDWV)": NaN,
    "Van der Waals Area (VDWA)": NaN,
    "UNIQUAC Ri Parameter (RI)": "1.570000E+00",
    "UNIQUAC Qi Parameter (QI)": "1.490000E+00",
    "Dipole Moment (DM)": "0.000000E+00 debye",
    "Radius of Gyration (GYRAD)": "1.538000E+00",
    "Liquid Density (DENL)": "2.056777E-02 g-mol/cm^3",
    "Temperature of DENL (TDENL)": "1.630000E+02 K",
    "Heat of Vaporizaiton (HVAP)": "1.354400E+04 kJ/kg-mol",
    "Temperature of HVAP (THVAP)": "1.694000E+02 K",
    "Surface Tension (SRF)": "2.323000E+01 dyn/cm",
    "Temperature of SRF (TSRF)": "1.332000E+02 K",
    "Dielectric Constant (DIEL)": NaN,
    "Temperature of DIEL (TDIEL)": NaN,
    "Refractive Index (RFI)": NaN,
    "Temperature of RFI (TRFI)": NaN,
    "Lower Flammability Limit(FLL)": "2.700000E+00 % in Air",
    "Upper Flammability Limit(FLU)": "2.860000E+01 % in Air",
    "Flash Point (Open Cup Method)": "1.370389E+02 K",
    "Flash Point (Closed Cup Method)": NaN,
    "Autoignition Temperature (AIGT)": "7.231500E+02 K",
    "NFPA Rating (Health)": "1",
    "NFPA Rating (Fire)": "4",
    "NFPA Rating (Safety)": "2",
    "Class": "Unsaturated Hydrocarbons",
    "Subclass": "Alkenes",
    "SMILES": "C=C"
}