{
    "ID": "185",
    "Name": "PROPYLENE",
    "Synonyms": "PROPENE, 1-PROPENE, METHYLETHYLENE",
    "CAS No.": "115-07-1",
    "Formula": "C3H6",
    "Molecular Wt. (WT)": "4.20804E+01",
    "Normal Boiling Point Temp. (TB)": "2.25460E+02 K",
    "Freezing Point Temp. (TF)": "8.79000E+01 K",
    "Triple Point Temp. (TT)": "8.78900E+01 K",
    "Triple Point Press. (PT)": "9.50000E-07 kPa",
    "Critical Temperature. (TC)": "3.64900E+02 K",
    "Critical Pressure (PC)": "4.60000E+03 kPa",
    "Critical Volume (VC)": "1.84600E-01 m^3/kg-mol",
    "Critical Compressibility (ZC)": "2.79885E-01",
    "Accentric Factor (ACCF)": "1.44000E-01",
    "Vapor Pressure": {
        "Equation Name": "KDB Correlation Equation",
        "Equation": "ln(Pvp) = A*ln(T) + B/T + C + D*T^2 where Pvp in kPa, T in K",
        "Coefficient A": "-6.064330E+00",
        "Coefficient B": "-3.417625E+03",
        "Coefficient C": "5.205602E+01",
        "Coefficient D": "1.139443E-05",
        "Coefficient E": NaN,
        "Coefficient F": NaN,
        "Coefficient G": NaN,
        "T range, from": "89.00 K",
        "T range, to": "364.76 K"
    },
    "Heat Capacity (Ideal Gas)": {
        "Equation Name": "Polynomial Equation",
        "Equation": "Cp = A + B*T + C*T^2 + D*T^3 + E*T^4  where Cp in kJ/kg-mol , T in K",
        "Coefficient A": "1.790513E+01",
        "Coefficient B": "1.478080E-01",
        "Coefficient C": "6.877262E-05",
        "Coefficient D": "-1.383731E-07",
        "Coefficient E": "4.844714E-11",
        "Coefficient F": NaN,
        "Coefficient G": NaN,
        "T range, from": NaN,
        "T range, to": NaN
    },
    "Heat Capacity (Liquid)": {
        "Equation Name": "Polynomial Equation",
        "Equation": "Cp = A + B*T + C*T^2 + D*T^3  where T in K and Cp in kJ/kg-mol.K",
        "Coefficient A": "82.8559",
        "Coefficient B": ".2963164",
        "Coefficient C": "-2.961403E-03",
        "Coefficient D": "7.759158E-06",
        "Coefficient E": NaN,
        "Coefficient F": NaN,
        "Coefficient G": NaN,
        "T range, from": "87.84999 K",
        "T range, to": "313.15 K"
    },
    "Viscosity (Gas, Low P)": {
        "Equation Name": "Polynomial Equation",
        "Equation": "VISG = A + B*T + C*T^2 where T in K and VISG in cP",
        "Coefficient A": "-.0005601",
        "Coefficient B": "3.188E-05",
        "Coefficient C": "-6.291E-09",
        "Coefficient D": "0",
        "Coefficient E": NaN,
        "Coefficient F": NaN,
        "Coefficient G": NaN,
        "T range, from": "173.15 K",
        "T range, to": "1273.15 K"
    },
    "Viscosity (Liquid)": {
        "Equation Name": "Quasipolynomial Equation",
        "Equation": "ln (VISL) = A + B/T + C*T + D*T^2  where T in K and VISL in cP.",
        "Coefficient A": "-11.53",
        "Coefficient B": "951.4",
        "Coefficient C": ".04078",
        "Coefficient D": "-.0000712",
        "Coefficient E": NaN,
        "Coefficient F": NaN,
        "Coefficient G": NaN,
        "T range, from": "113.15 K",
        "T range, to": "364.15 K"
    },
    "Themal Conductivity (Gas, Low P)": {
        "Equation Name": "Polynomial Equation",
        "Equation": "THG = A + B*T + C*T^2 + D*T^3  where T in K and THG in W/m.K",
        "Coefficient A": "-.007584",
        "Coefficient B": "6.101E-05",
        "Coefficient C": "9.966E-08",
        "Coefficient D": "-3.84E-11",
        "Coefficient E": NaN,
        "Coefficient F": NaN,
        "Coefficient G": NaN,
        "T range, from": "175 K",
        "T range, to": "1270 K"
    },
    "Themal Conductivity (Liquid)": {
        "Equation Name": "Polynomial Equation",
        "Equation": "THL = A + B*T + C*T^2 + D*T^3  where T in K and THL in W/m.K",
        "Coefficient A": ".2906",
        "Coefficient B": "-.0006053",
        "Coefficient C": "1.256E-08",
        "Coefficient D": "0",
        "Coefficient E": NaN,
        "Coefficient F": NaN,
        "Coefficient G": NaN,
        "T range, from": "88 K",
        "T range, to": "343 K"
    },
    "Surface Tension": NaN,
    "Partial Molar Volume (VOLP)": NaN,
    "Solubility Parameters (SOLP)": "1.315245E+04 (J/cm^3)^0.5",
    "SRK accentric factor (WSRK)": "1.455000E-01",
    "COSTALD Characteristic Volume (VSTAR)": "1.829000E-01 m^3/kg-mol",
    "Rackett parameter (ZRA)": "2.779000E-01",
    "Aniline Point (ANP)": NaN,
    "H(formation,ideal gas)at 25 C": "2.043000E+04 kJ/kg-mol",
    "G(formation,ideal gas) at 25 C": "6.276000E+04 kJ/kg-mol",
    "Heat of Combustion, Gross form (HCB1)": NaN,
    "Heat of Combustion, Net form (HCB2)": NaN,
    "Van der Waals Volume (VDWV)": NaN,
    "Van der Waals Area (VDWA)": NaN,
    "UNIQUAC Ri Parameter (RI)": "2.250000E+00",
    "UNIQUAC Qi Parameter (QI)": "2.020000E+00",
    "Dipole Moment (DM)": "4.000000E-01 debye",
    "Radius of Gyration (GYRAD)": "2.228000E+00",
    "Liquid Density (DENL)": "1.454359E-02 g-mol/cm^3",
    "Temperature of DENL (TDENL)": "2.230000E+02 K",
    "Heat of Vaporizaiton (HVAP)": "1.841000E+04 kJ/kg-mol",
    "Temperature of HVAP (THVAP)": "2.257000E+02 K",
    "Surface Tension (SRF)": "1.580000E+01 dyn/cm",
    "Temperature of SRF (TSRF)": "2.332000E+02 K",
    "Dielectric Constant (DIEL)": NaN,
    "Temperature of DIEL (TDIEL)": NaN,
    "Refractive Index (RFI)": NaN,
    "Temperature of RFI (TRFI)": NaN,
    "Lower Flammability Limit(FLL)": "2.000000E+00 % in Air",
    "Upper Flammability Limit(FLU)": "1.100000E+01 % in Air",
    "Flash Point (Open Cup Method)": "1.653722E+02 K",
    "Flash Point (Closed Cup Method)": NaN,
    "Autoignition Temperature (AIGT)": "7.703723E+02 K",
    "NFPA Rating (Health)": "1",
    "NFPA Rating (Fire)": "4",
    "NFPA Rating (Safety)": "1",
    "Class": "Unsaturated Hydrocarbons",
    "Subclass": "Alkenes",
    "SMILES": "CC=C"
}