{
    "ID": "1856",
    "Name": "CARBONYL SULFIDE",
    "Synonyms": "CARBON OXIDE SULFIDE, CARBON OXYSULFIDE, OXYCARBON SULFIDE",
    "CAS No.": "463-58-1",
    "Formula": "COS",
    "Molecular Wt. (WT)": "6.00704E+01",
    "Normal Boiling Point Temp. (TB)": "2.23000E+02 K",
    "Freezing Point Temp. (TF)": "1.34300E+02 K",
    "Triple Point Temp. (TT)": NaN,
    "Triple Point Press. (PT)": NaN,
    "Critical Temperature. (TC)": "3.75000E+02 K",
    "Critical Pressure (PC)": "5.88000E+03 kPa",
    "Critical Volume (VC)": "1.37000E-01 m^3/kg-mol",
    "Critical Compressibility (ZC)": "2.58363E-01",
    "Accentric Factor (ACCF)": "1.05000E-01",
    "Vapor Pressure": {
        "Equation Name": "KDB Correlation Equation",
        "Equation": "ln(Pvp) = A*ln(T) + B/T + C + D*T^2 where Pvp in kPa, T in K",
        "Coefficient A": "-7.724924E+00",
        "Coefficient B": "-3.671418E+03",
        "Coefficient C": "6.210480E+01",
        "Coefficient D": "1.540239E-05",
        "Coefficient E": NaN,
        "Coefficient F": NaN,
        "Coefficient G": NaN,
        "T range, from": "134.35 K",
        "T range, to": "378.80 K"
    },
    "Heat Capacity (Ideal Gas)": {
        "Equation Name": "Polynomial Equation",
        "Equation": "Cp = A + B*T + C*T^2 + D*T^3 + E*T^4  where Cp in kJ/kg-mol , T in K",
        "Coefficient A": "2.357000E+01",
        "Coefficient B": "7.984000E-02",
        "Coefficient C": "-7.017000E-05",
        "Coefficient D": "2.453E-08",
        "Coefficient E": "0",
        "Coefficient F": NaN,
        "Coefficient G": NaN,
        "T range, from": NaN,
        "T range, to": NaN
    },
    "Heat Capacity (Liquid)": NaN,
    "Viscosity (Gas, Low P)": NaN,
    "Viscosity (Liquid)": NaN,
    "Themal Conductivity (Gas, Low P)": NaN,
    "Themal Conductivity (Liquid)": NaN,
    "Surface Tension": NaN,
    "Partial Molar Volume (VOLP)": NaN,
    "Solubility Parameters (SOLP)": NaN,
    "SRK accentric factor (WSRK)": NaN,
    "COSTALD Characteristic Volume (VSTAR)": NaN,
    "Rackett parameter (ZRA)": NaN,
    "Aniline Point (ANP)": NaN,
    "H(formation,ideal gas)at 25 C": "-1.385000E+05 kJ/kg-mol",
    "G(formation,ideal gas) at 25 C": "-1.658000E+05 kJ/kg-mol",
    "Heat of Combustion, Gross form (HCB1)": NaN,
    "Heat of Combustion, Net form (HCB2)": NaN,
    "Van der Waals Volume (VDWV)": NaN,
    "Van der Waals Area (VDWA)": NaN,
    "UNIQUAC Ri Parameter (RI)": NaN,
    "UNIQUAC Qi Parameter (QI)": NaN,
    "Dipole Moment (DM)": "7.000000E-01 debye",
    "Radius of Gyration (GYRAD)": NaN,
    "Liquid Density (DENL)": "2.120845E-02 g-mol/cm^3",
    "Temperature of DENL (TDENL)": "1.740000E+02 K",
    "Heat of Vaporizaiton (HVAP)": "2.088700E+04 kJ/kg-mol",
    "Temperature of HVAP (THVAP)": "2.229000E+02 K",
    "Surface Tension (SRF)": "2.190000E+01 dyn/cm",
    "Temperature of SRF (TSRF)": "2.182000E+02 K",
    "Dielectric Constant (DIEL)": NaN,
    "Temperature of DIEL (TDIEL)": NaN,
    "Refractive Index (RFI)": NaN,
    "Temperature of RFI (TRFI)": NaN,
    "Lower Flammability Limit(FLL)": NaN,
    "Upper Flammability Limit(FLU)": NaN,
    "Flash Point (Open Cup Method)": NaN,
    "Flash Point (Closed Cup Method)": NaN,
    "Autoignition Temperature (AIGT)": NaN,
    "NFPA Rating (Health)": 3.0,
    "NFPA Rating (Fire)": 4.0,
    "NFPA Rating (Safety)": 1.0,
    "Class": "Sulfur Derivatives",
    "Subclass": "Other Sulfur Derivatives",
    "SMILES": "C(=O)=S"
}