{
    "ID": "186",
    "Name": "1-BUTENE",
    "Synonyms": "ETHYLETHYLENE, BUTENE-1, BUT-1-ENE",
    "CAS No.": "106-98-9",
    "Formula": "C4H8",
    "Molecular Wt. (WT)": "5.61072E+01",
    "Normal Boiling Point Temp. (TB)": "2.66890E+02 K",
    "Freezing Point Temp. (TF)": "8.78000E+01 K",
    "Triple Point Temp. (TT)": NaN,
    "Triple Point Press. (PT)": NaN,
    "Critical Temperature. (TC)": "4.19500E+02 K",
    "Critical Pressure (PC)": "4.02000E+03 kPa",
    "Critical Volume (VC)": "2.40800E-01 m^3/kg-mol",
    "Critical Compressibility (ZC)": "2.77533E-01",
    "Accentric Factor (ACCF)": "1.91000E-01",
    "Vapor Pressure": {
        "Equation Name": "KDB Correlation Equation",
        "Equation": "ln(Pvp) = A*ln(T) + B/T + C + D*T^2 where Pvp in kPa, T in K",
        "Coefficient A": "-7.789791E+00",
        "Coefficient B": "-4.509829E+03",
        "Coefficient C": "6.434735E+01",
        "Coefficient D": "9.816232E-06",
        "Coefficient E": NaN,
        "Coefficient F": NaN,
        "Coefficient G": NaN,
        "T range, from": "87.80 K",
        "T range, to": "419.59 K"
    },
    "Heat Capacity (Ideal Gas)": {
        "Equation Name": "Polynomial Equation",
        "Equation": "Cp = A + B*T + C*T^2 + D*T^3 + E*T^4  where Cp in kJ/kg-mol , T in K",
        "Coefficient A": "3.538955E+01",
        "Coefficient B": "8.970446E-02",
        "Coefficient C": "3.980570E-04",
        "Coefficient D": "-4.974343E-07",
        "Coefficient E": "1.696724E-10",
        "Coefficient F": NaN,
        "Coefficient G": NaN,
        "T range, from": NaN,
        "T range, to": NaN
    },
    "Heat Capacity (Liquid)": {
        "Equation Name": "Polynomial Equation",
        "Equation": "Cp = A + B*T + C*T^2 + D*T^3  where T in K and Cp in kJ/kg-mol.K",
        "Coefficient A": "127.2828",
        "Coefficient B": "-.2767732",
        "Coefficient C": "8.002713E-04",
        "Coefficient D": "5.152818E-07",
        "Coefficient E": NaN,
        "Coefficient F": NaN,
        "Coefficient G": NaN,
        "T range, from": "87.75 K",
        "T range, to": "353.15 K"
    },
    "Viscosity (Gas, Low P)": {
        "Equation Name": "Polynomial Equation",
        "Equation": "VISG = A + B*T + C*T^2 where T in K and VISG in cP",
        "Coefficient A": "-.0008884",
        "Coefficient B": "2.959E-05",
        "Coefficient C": "-5.724E-09",
        "Coefficient D": "0",
        "Coefficient E": NaN,
        "Coefficient F": NaN,
        "Coefficient G": NaN,
        "T range, from": "173.15 K",
        "T range, to": "1273.15 K"
    },
    "Viscosity (Liquid)": {
        "Equation Name": "Quasipolynomial Equation",
        "Equation": "ln (VISL) = A + B/T + C*T + D*T^2  where T in K and VISL in cP.",
        "Coefficient A": "-10.63",
        "Coefficient B": "981.6",
        "Coefficient C": ".03525",
        "Coefficient D": "-5.593E-05",
        "Coefficient E": NaN,
        "Coefficient F": NaN,
        "Coefficient G": NaN,
        "T range, from": "133.15 K",
        "T range, to": "419.15 K"
    },
    "Themal Conductivity (Gas, Low P)": {
        "Equation Name": "Polynomial Equation",
        "Equation": "THG = A + B*T + C*T^2 + D*T^3  where T in K and THG in W/m.K",
        "Coefficient A": "-.01052",
        "Coefficient B": "5.771E-05",
        "Coefficient C": "1.018E-07",
        "Coefficient D": "-4.271E-11",
        "Coefficient E": NaN,
        "Coefficient F": NaN,
        "Coefficient G": NaN,
        "T range, from": "175 K",
        "T range, to": "1270 K"
    },
    "Themal Conductivity (Liquid)": {
        "Equation Name": "Polynomial Equation",
        "Equation": "THL = A + B*T + C*T^2 + D*T^3  where T in K and THL in W/m.K",
        "Coefficient A": ".2554",
        "Coefficient B": "-.0003984",
        "Coefficient C": "-1.135E-07",
        "Coefficient D": "0",
        "Coefficient E": NaN,
        "Coefficient F": NaN,
        "Coefficient G": NaN,
        "T range, from": "88 K",
        "T range, to": "393 K"
    },
    "Surface Tension": NaN,
    "Partial Molar Volume (VOLP)": "9.430000E-02 m^3/kg-mol",
    "Solubility Parameters (SOLP)": "1.382746E+04 (J/cm^3)^0.5",
    "SRK accentric factor (WSRK)": "1.921000E-01",
    "COSTALD Characteristic Volume (VSTAR)": "2.377000E-01 m^3/kg-mol",
    "Rackett parameter (ZRA)": "2.736000E-01",
    "Aniline Point (ANP)": NaN,
    "H(formation,ideal gas)at 25 C": "-1.260000E+02 kJ/kg-mol",
    "G(formation,ideal gas) at 25 C": "7.134000E+04 kJ/kg-mol",
    "Heat of Combustion, Gross form (HCB1)": "2.696546E+06 kJ/kg-mol",
    "Heat of Combustion, Net form (HCB2)": "2.520483E+06 kJ/kg-mol",
    "Van der Waals Volume (VDWV)": NaN,
    "Van der Waals Area (VDWA)": NaN,
    "UNIQUAC Ri Parameter (RI)": "2.920900E+00",
    "UNIQUAC Qi Parameter (QI)": "2.564000E+00",
    "Dipole Moment (DM)": "3.000000E-01 debye",
    "Radius of Gyration (GYRAD)": "2.746000E+00",
    "Liquid Density (DENL)": "1.060470E-02 g-mol/cm^3",
    "Temperature of DENL (TDENL)": "2.930000E+02 K",
    "Heat of Vaporizaiton (HVAP)": "2.191600E+04 kJ/kg-mol",
    "Temperature of HVAP (THVAP)": "2.669000E+02 K",
    "Surface Tension (SRF)": "1.254000E+01 dyn/cm",
    "Temperature of SRF (TSRF)": "2.932000E+02 K",
    "Dielectric Constant (DIEL)": NaN,
    "Temperature of DIEL (TDIEL)": NaN,
    "Refractive Index (RFI)": NaN,
    "Temperature of RFI (TRFI)": NaN,
    "Lower Flammability Limit(FLL)": "1.600000E+00 % in Air",
    "Upper Flammability Limit(FLU)": "1.000000E+01 % in Air",
    "Flash Point (Open Cup Method)": NaN,
    "Flash Point (Closed Cup Method)": NaN,
    "Autoignition Temperature (AIGT)": "6.581500E+02 K",
    "NFPA Rating (Health)": "1",
    "NFPA Rating (Fire)": "4",
    "NFPA Rating (Safety)": NaN,
    "Class": "Unsaturated Hydrocarbons",
    "Subclass": "Alkenes",
    "SMILES": "CCC=C"
}