{
    "ID": "1864",
    "Name": "THIOPHENE",
    "Synonyms": "THIACYCLOPENTADIENE, THIOFURAN",
    "CAS No.": "110-02-1",
    "Formula": "C4H4S",
    "Molecular Wt. (WT)": "8.41356E+01",
    "Normal Boiling Point Temp. (TB)": "3.57100E+02 K",
    "Freezing Point Temp. (TF)": "2.33700E+02 K",
    "Triple Point Temp. (TT)": NaN,
    "Triple Point Press. (PT)": NaN,
    "Critical Temperature. (TC)": "5.79400E+02 K",
    "Critical Pressure (PC)": "5.69000E+03 kPa",
    "Critical Volume (VC)": "2.19000E-01 m^3/kg-mol",
    "Critical Compressibility (ZC)": "2.58667E-01",
    "Accentric Factor (ACCF)": "1.96000E-01",
    "Vapor Pressure": {
        "Equation Name": "KDB Correlation Equation",
        "Equation": "ln(Pvp) = A*ln(T) + B/T + C + D*T^2 where Pvp in kPa, T in K",
        "Coefficient A": "-1.005582E+01",
        "Coefficient B": "-6.846516E+03",
        "Coefficient C": "8.194729E+01",
        "Coefficient D": "7.421781E-06",
        "Coefficient E": NaN,
        "Coefficient F": NaN,
        "Coefficient G": NaN,
        "T range, from": "234.94 K",
        "T range, to": "579.35 K"
    },
    "Heat Capacity (Ideal Gas)": {
        "Equation Name": "Polynomial Equation",
        "Equation": "Cp = A + B*T + C*T^2 + D*T^3 + E*T^4  where Cp in kJ/kg-mol , T in K",
        "Coefficient A": "-3.061000E+01",
        "Coefficient B": "4.480000E-01",
        "Coefficient C": "-3.772000E-04",
        "Coefficient D": "1.253E-07",
        "Coefficient E": "0",
        "Coefficient F": NaN,
        "Coefficient G": NaN,
        "T range, from": NaN,
        "T range, to": NaN
    },
    "Heat Capacity (Liquid)": NaN,
    "Viscosity (Gas, Low P)": NaN,
    "Viscosity (Liquid)": {
        "Equation Name": "Andrade Equation",
        "Equation": "ln (VISL) = A + B/ T  where T in K and VISL in cP.",
        "Coefficient A": "-4.039",
        "Coefficient B": "1065",
        "Coefficient C": "0",
        "Coefficient D": "0",
        "Coefficient E": NaN,
        "Coefficient F": NaN,
        "Coefficient G": NaN,
        "T range, from": "273.15 K",
        "T range, to": "356.15 K"
    },
    "Themal Conductivity (Gas, Low P)": NaN,
    "Themal Conductivity (Liquid)": NaN,
    "Surface Tension": NaN,
    "Partial Molar Volume (VOLP)": "7.946000E-02 m^3/kg-mol",
    "Solubility Parameters (SOLP)": "1.973277E+04 (J/cm^3)^0.5",
    "SRK accentric factor (WSRK)": "1.934000E-01",
    "COSTALD Characteristic Volume (VSTAR)": "2.279000E-01 m^3/kg-mol",
    "Rackett parameter (ZRA)": NaN,
    "Aniline Point (ANP)": NaN,
    "H(formation,ideal gas)at 25 C": "1.158000E+05 kJ/kg-mol",
    "G(formation,ideal gas) at 25 C": "1.269000E+05 kJ/kg-mol",
    "Heat of Combustion, Gross form (HCB1)": NaN,
    "Heat of Combustion, Net form (HCB2)": NaN,
    "Van der Waals Volume (VDWV)": NaN,
    "Van der Waals Area (VDWA)": NaN,
    "UNIQUAC Ri Parameter (RI)": "2.856900E+00",
    "UNIQUAC Qi Parameter (QI)": "2.140000E+00",
    "Dipole Moment (DM)": "5.000000E-01 debye",
    "Radius of Gyration (GYRAD)": NaN,
    "Liquid Density (DENL)": "1.272945E-02 g-mol/cm^3",
    "Temperature of DENL (TDENL)": "2.890000E+02 K",
    "Heat of Vaporizaiton (HVAP)": "3.146400E+04 kJ/kg-mol",
    "Temperature of HVAP (THVAP)": "3.570000E+02 K",
    "Surface Tension (SRF)": "3.134000E+01 dyn/cm",
    "Temperature of SRF (TSRF)": "2.932000E+02 K",
    "Dielectric Constant (DIEL)": NaN,
    "Temperature of DIEL (TDIEL)": NaN,
    "Refractive Index (RFI)": NaN,
    "Temperature of RFI (TRFI)": NaN,
    "Lower Flammability Limit(FLL)": NaN,
    "Upper Flammability Limit(FLU)": NaN,
    "Flash Point (Open Cup Method)": NaN,
    "Flash Point (Closed Cup Method)": NaN,
    "Autoignition Temperature (AIGT)": NaN,
    "NFPA Rating (Health)": 2.0,
    "NFPA Rating (Fire)": 3.0,
    "NFPA Rating (Safety)": NaN,
    "Class": "Sulfur Derivatives",
    "Subclass": "Other Sulfur Derivatives",
    "SMILES": "C1=CSC=C1"
}