{
    "ID": "187",
    "Name": "CIS-2-BUTENE",
    "Synonyms": "(Z)-2-BUTENE, CIS-BUTYLENE, CIS-1,2-DIMETHYLETHYLENE",
    "CAS No.": "590-18-1",
    "Formula": "C4H8",
    "Molecular Wt. (WT)": "5.61072E+01",
    "Normal Boiling Point Temp. (TB)": "2.76860E+02 K",
    "Freezing Point Temp. (TF)": "1.34200E+02 K",
    "Triple Point Temp. (TT)": NaN,
    "Triple Point Press. (PT)": NaN,
    "Critical Temperature. (TC)": "4.35580E+02 K",
    "Critical Pressure (PC)": "4.19700E+03 kPa",
    "Critical Volume (VC)": "2.34000E-01 m^3/kg-mol",
    "Critical Compressibility (ZC)": "2.71175E-01",
    "Accentric Factor (ACCF)": "2.02000E-01",
    "Vapor Pressure": {
        "Equation Name": "KDB Correlation Equation",
        "Equation": "ln(Pvp) = A*ln(T) + B/T + C + D*T^2 where Pvp in kPa, T in K",
        "Coefficient A": "-8.600070E+00",
        "Coefficient B": "-4.817224E+03",
        "Coefficient C": "6.951213E+01",
        "Coefficient D": "1.133808E-05",
        "Coefficient E": NaN,
        "Coefficient F": NaN,
        "Coefficient G": NaN,
        "T range, from": "134.26 K",
        "T range, to": "435.58 K"
    },
    "Heat Capacity (Ideal Gas)": {
        "Equation Name": "Polynomial Equation",
        "Equation": "Cp = A + B*T + C*T^2 + D*T^3 + E*T^4  where Cp in kJ/kg-mol , T in K",
        "Coefficient A": "2.044529E+01",
        "Coefficient B": "1.712720E-01",
        "Coefficient C": "1.774434E-04",
        "Coefficient D": "-2.64488E-07",
        "Coefficient E": "8.880652E-11",
        "Coefficient F": NaN,
        "Coefficient G": NaN,
        "T range, from": NaN,
        "T range, to": NaN
    },
    "Heat Capacity (Liquid)": NaN,
    "Viscosity (Gas, Low P)": NaN,
    "Viscosity (Liquid)": NaN,
    "Themal Conductivity (Gas, Low P)": NaN,
    "Themal Conductivity (Liquid)": NaN,
    "Surface Tension": NaN,
    "Partial Molar Volume (VOLP)": "9.035000E-02 m^3/kg-mol",
    "Solubility Parameters (SOLP)": "1.382746E+04 (J/cm^3)^0.5",
    "SRK accentric factor (WSRK)": "2.039000E-01",
    "COSTALD Characteristic Volume (VSTAR)": "2.311000E-01 m^3/kg-mol",
    "Rackett parameter (ZRA)": "2.701000E-01",
    "Aniline Point (ANP)": NaN,
    "H(formation,ideal gas)at 25 C": "-6.990000E+03 kJ/kg-mol",
    "G(formation,ideal gas) at 25 C": "6.590000E+04 kJ/kg-mol",
    "Heat of Combustion, Gross form (HCB1)": "2.687843E+06 kJ/kg-mol",
    "Heat of Combustion, Net form (HCB2)": "2.511781E+06 kJ/kg-mol",
    "Van der Waals Volume (VDWV)": NaN,
    "Van der Waals Area (VDWA)": NaN,
    "UNIQUAC Ri Parameter (RI)": "2.918900E+00",
    "UNIQUAC Qi Parameter (QI)": "2.563000E+00",
    "Dipole Moment (DM)": "3.000000E-01 debye",
    "Radius of Gyration (GYRAD)": NaN,
    "Liquid Density (DENL)": "1.106810E-02 g-mol/cm^3",
    "Temperature of DENL (TDENL)": "2.930000E+02 K",
    "Heat of Vaporizaiton (HVAP)": "2.334700E+04 kJ/kg-mol",
    "Temperature of HVAP (THVAP)": "2.769000E+02 K",
    "Surface Tension (SRF)": "1.353000E+01 dyn/cm",
    "Temperature of SRF (TSRF)": "2.932000E+02 K",
    "Dielectric Constant (DIEL)": NaN,
    "Temperature of DIEL (TDIEL)": NaN,
    "Refractive Index (RFI)": NaN,
    "Temperature of RFI (TRFI)": NaN,
    "Lower Flammability Limit(FLL)": NaN,
    "Upper Flammability Limit(FLU)": NaN,
    "Flash Point (Open Cup Method)": NaN,
    "Flash Point (Closed Cup Method)": NaN,
    "Autoignition Temperature (AIGT)": NaN,
    "NFPA Rating (Health)": 1.0,
    "NFPA Rating (Fire)": 4.0,
    "NFPA Rating (Safety)": NaN,
    "Class": "Unsaturated Hydrocarbons",
    "Subclass": "Alkenes",
    "SMILES": "C/C=C\\C"
}