{
    "ID": "188",
    "Name": "TRANS-2-BUTENE",
    "Synonyms": "(E)-2-BUTENE, TANS-1,2-DIMETHYLETHYLENE, 2-TRANS-BUTENE",
    "CAS No.": "624-64-6",
    "Formula": "C4H8",
    "Molecular Wt. (WT)": "5.61072E+01",
    "Normal Boiling Point Temp. (TB)": "2.74030E+02 K",
    "Freezing Point Temp. (TF)": "1.67620E+02 K",
    "Triple Point Temp. (TT)": NaN,
    "Triple Point Press. (PT)": NaN,
    "Critical Temperature. (TC)": "4.28630E+02 K",
    "Critical Pressure (PC)": "3.98500E+03 kPa",
    "Critical Volume (VC)": "2.38000E-01 m^3/kg-mol",
    "Critical Compressibility (ZC)": "2.66125E-01",
    "Accentric Factor (ACCF)": "2.05000E-01",
    "Vapor Pressure": {
        "Equation Name": "KDB Correlation Equation",
        "Equation": "ln(Pvp) = A*ln(T) + B/T + C + D*T^2 where Pvp in kPa, T in K",
        "Coefficient A": "-8.405556E+00",
        "Coefficient B": "-4.658962E+03",
        "Coefficient C": "6.788296E+01",
        "Coefficient D": "1.226462E-05",
        "Coefficient E": NaN,
        "Coefficient F": NaN,
        "Coefficient G": NaN,
        "T range, from": "167.62 K",
        "T range, to": "428.63 K"
    },
    "Heat Capacity (Ideal Gas)": {
        "Equation Name": "Polynomial Equation",
        "Equation": "Cp = A + B*T + C*T^2 + D*T^3 + E*T^4  where Cp in kJ/kg-mol , T in K",
        "Coefficient A": "2.733791E+01",
        "Coefficient B": "2.126764E-01",
        "Coefficient C": "-3.091571E-06",
        "Coefficient D": "-5.202225E-08",
        "Coefficient E": "1.165186E-11",
        "Coefficient F": NaN,
        "Coefficient G": NaN,
        "T range, from": NaN,
        "T range, to": NaN
    },
    "Heat Capacity (Liquid)": NaN,
    "Viscosity (Gas, Low P)": NaN,
    "Viscosity (Liquid)": NaN,
    "Themal Conductivity (Gas, Low P)": NaN,
    "Themal Conductivity (Liquid)": NaN,
    "Surface Tension": NaN,
    "Partial Molar Volume (VOLP)": NaN,
    "Solubility Parameters (SOLP)": "1.382746E+04 (J/cm^3)^0.5",
    "SRK accentric factor (WSRK)": "2.153000E-01",
    "COSTALD Characteristic Volume (VSTAR)": "2.367000E-01 m^3/kg-mol",
    "Rackett parameter (ZRA)": "2.720000E-01",
    "Aniline Point (ANP)": NaN,
    "H(formation,ideal gas)at 25 C": "-1.118000E+04 kJ/kg-mol",
    "G(formation,ideal gas) at 25 C": "6.301000E+04 kJ/kg-mol",
    "Heat of Combustion, Gross form (HCB1)": "2.684371E+06 kJ/kg-mol",
    "Heat of Combustion, Net form (HCB2)": "2.508308E+06 kJ/kg-mol",
    "Van der Waals Volume (VDWV)": NaN,
    "Van der Waals Area (VDWA)": NaN,
    "UNIQUAC Ri Parameter (RI)": NaN,
    "UNIQUAC Qi Parameter (QI)": NaN,
    "Dipole Moment (DM)": "0.000000E+00 debye",
    "Radius of Gyration (GYRAD)": NaN,
    "Liquid Density (DENL)": "1.076511E-02 g-mol/cm^3",
    "Temperature of DENL (TDENL)": "2.930000E+02 K",
    "Heat of Vaporizaiton (HVAP)": "2.275700E+04 kJ/kg-mol",
    "Temperature of HVAP (THVAP)": "2.740000E+02 K",
    "Surface Tension (SRF)": "1.353000E+01 dyn/cm",
    "Temperature of SRF (TSRF)": "2.932000E+02 K",
    "Dielectric Constant (DIEL)": NaN,
    "Temperature of DIEL (TDIEL)": NaN,
    "Refractive Index (RFI)": NaN,
    "Temperature of RFI (TRFI)": NaN,
    "Lower Flammability Limit(FLL)": NaN,
    "Upper Flammability Limit(FLU)": NaN,
    "Flash Point (Open Cup Method)": NaN,
    "Flash Point (Closed Cup Method)": NaN,
    "Autoignition Temperature (AIGT)": NaN,
    "NFPA Rating (Health)": 1.0,
    "NFPA Rating (Fire)": 4.0,
    "NFPA Rating (Safety)": NaN,
    "Class": "Unsaturated Hydrocarbons",
    "Subclass": "Alkenes",
    "SMILES": "C/C=C/C"
}