{
    "ID": "189",
    "Name": "ISOBUTENE",
    "Synonyms": "2-METHYL PROPENE, ISOBUTYLENE",
    "CAS No.": "115-11-7",
    "Formula": "C4H8",
    "Molecular Wt. (WT)": "5.61072E+01",
    "Normal Boiling Point Temp. (TB)": "2.66200E+02 K",
    "Freezing Point Temp. (TF)": "1.32700E+02 K",
    "Triple Point Temp. (TT)": NaN,
    "Triple Point Press. (PT)": NaN,
    "Critical Temperature. (TC)": "4.17900E+02 K",
    "Critical Pressure (PC)": "4.00000E+03 kPa",
    "Critical Volume (VC)": "2.39000E-01 m^3/kg-mol",
    "Critical Compressibility (ZC)": "2.75137E-01",
    "Accentric Factor (ACCF)": "1.94000E-01",
    "Vapor Pressure": {
        "Equation Name": "KDB Correlation Equation",
        "Equation": "ln(Pvp) = A*ln(T) + B/T + C + D*T^2 where Pvp in kPa, T in K",
        "Coefficient A": "-8.371420E+00",
        "Coefficient B": "-4.533163E+03",
        "Coefficient C": "6.752944E+01",
        "Coefficient D": "1.224816E-05",
        "Coefficient E": NaN,
        "Coefficient F": NaN,
        "Coefficient G": NaN,
        "T range, from": "132.81 K",
        "T range, to": "417.90 K"
    },
    "Heat Capacity (Ideal Gas)": {
        "Equation Name": "Polynomial Equation",
        "Equation": "Cp = A + B*T + C*T^2 + D*T^3 + E*T^4  where Cp in kJ/kg-mol , T in K",
        "Coefficient A": "7.997615E+00",
        "Coefficient B": "3.023183E-01",
        "Coefficient C": "-1.134634E-04",
        "Coefficient D": "-2.213492E-08",
        "Coefficient E": "2.061498E-11",
        "Coefficient F": NaN,
        "Coefficient G": NaN,
        "T range, from": NaN,
        "T range, to": NaN
    },
    "Heat Capacity (Liquid)": {
        "Equation Name": "Polynomial Equation",
        "Equation": "Cp = A + B*T + C*T^2 + D*T^3  where T in K and Cp in kJ/kg-mol.K",
        "Coefficient A": "44.72036",
        "Coefficient B": ".857551",
        "Coefficient C": "-3.941495E-03",
        "Coefficient D": "6.789043E-06",
        "Coefficient E": NaN,
        "Coefficient F": NaN,
        "Coefficient G": NaN,
        "T range, from": "132.8 K",
        "T range, to": "398.15 K"
    },
    "Viscosity (Gas, Low P)": {
        "Equation Name": "Polynomial Equation",
        "Equation": "VISG = A + B*T + C*T^2 where T in K and VISG in cP",
        "Coefficient A": "-.0007039",
        "Coefficient B": "3.172E-05",
        "Coefficient C": "-6.939E-09",
        "Coefficient D": "0",
        "Coefficient E": NaN,
        "Coefficient F": NaN,
        "Coefficient G": NaN,
        "T range, from": "273.15 K",
        "T range, to": "1273.15 K"
    },
    "Viscosity (Liquid)": NaN,
    "Themal Conductivity (Gas, Low P)": {
        "Equation Name": "Polynomial Equation",
        "Equation": "THG = A + B*T + C*T^2 + D*T^3  where T in K and THG in W/m.K",
        "Coefficient A": "-.002776",
        "Coefficient B": "-2.806E-06",
        "Coefficient C": "2.525E-07",
        "Coefficient D": "-1.281E-10",
        "Coefficient E": NaN,
        "Coefficient F": NaN,
        "Coefficient G": NaN,
        "T range, from": "273 K",
        "T range, to": "1070 K"
    },
    "Themal Conductivity (Liquid)": NaN,
    "Surface Tension": NaN,
    "Partial Molar Volume (VOLP)": NaN,
    "Solubility Parameters (SOLP)": "1.382746E+04 (J/cm^3)^0.5",
    "SRK accentric factor (WSRK)": "1.959000E-01",
    "COSTALD Characteristic Volume (VSTAR)": "2.369000E-01 m^3/kg-mol",
    "Rackett parameter (ZRA)": "2.728000E-01",
    "Aniline Point (ANP)": "2.880500E+02 K",
    "H(formation,ideal gas)at 25 C": "-1.691000E+04 kJ/kg-mol",
    "G(formation,ideal gas) at 25 C": "5.811000E+04 kJ/kg-mol",
    "Heat of Combustion, Gross form (HCB1)": "2.679266E+06 kJ/kg-mol",
    "Heat of Combustion, Net form (HCB2)": "2.503204E+06 kJ/kg-mol",
    "Van der Waals Volume (VDWV)": NaN,
    "Van der Waals Area (VDWA)": NaN,
    "UNIQUAC Ri Parameter (RI)": NaN,
    "UNIQUAC Qi Parameter (QI)": NaN,
    "Dipole Moment (DM)": "5.000000E-01 debye",
    "Radius of Gyration (GYRAD)": NaN,
    "Liquid Density (DENL)": "1.058688E-02 g-mol/cm^3",
    "Temperature of DENL (TDENL)": "2.930000E+02 K",
    "Heat of Vaporizaiton (HVAP)": "2.211700E+04 kJ/kg-mol",
    "Temperature of HVAP (THVAP)": "2.663000E+02 K",
    "Surface Tension (SRF)": NaN,
    "Temperature of SRF (TSRF)": NaN,
    "Dielectric Constant (DIEL)": NaN,
    "Temperature of DIEL (TDIEL)": NaN,
    "Refractive Index (RFI)": NaN,
    "Temperature of RFI (TRFI)": NaN,
    "Lower Flammability Limit(FLL)": "1.800000E+00 % in Air",
    "Upper Flammability Limit(FLU)": "9.600000E+00 % in Air",
    "Flash Point (Open Cup Method)": "1.970389E+02 K",
    "Flash Point (Closed Cup Method)": NaN,
    "Autoignition Temperature (AIGT)": "7.381500E+02 K",
    "NFPA Rating (Health)": NaN,
    "NFPA Rating (Fire)": NaN,
    "NFPA Rating (Safety)": NaN,
    "Class": "Unsaturated Hydrocarbons",
    "Subclass": "Alkenes",
    "SMILES": "CC(=C)C"
}