{
    "ID": "19",
    "Name": "N-NONADECANE",
    "Synonyms": "NONADECANE",
    "CAS No.": "629-92-5",
    "Formula": "C19H40",
    "Molecular Wt. (WT)": "2.68525E+02",
    "Normal Boiling Point Temp. (TB)": "6.03000E+02 K",
    "Freezing Point Temp. (TF)": "3.05200E+02 K",
    "Triple Point Temp. (TT)": NaN,
    "Triple Point Press. (PT)": NaN,
    "Critical Temperature. (TC)": "7.55000E+02 K",
    "Critical Pressure (PC)": "1.16000E+03 kPa",
    "Critical Volume (VC)": "1.13000E+00 m^3/kg-mol",
    "Critical Compressibility (ZC)": "2.08811E-01",
    "Accentric Factor (ACCF)": "8.27000E-01",
    "Vapor Pressure": {
        "Equation Name": "KDB Correlation Equation",
        "Equation": "ln(Pvp) = A*ln(T) + B/T + C + D*T^2 where Pvp in kPa, T in K",
        "Coefficient A": "-2.250949E+01",
        "Coefficient B": "-1.782113E+04",
        "Coefficient C": "1.756413E+02",
        "Coefficient D": "7.246107E-06",
        "Coefficient E": NaN,
        "Coefficient F": NaN,
        "Coefficient G": NaN,
        "T range, from": "305.33 K",
        "T range, to": "755.93 K"
    },
    "Heat Capacity (Ideal Gas)": {
        "Equation Name": "Polynomial Equation",
        "Equation": "Cp = A + B*T + C*T^2 + D*T^3 + E*T^4  where Cp in kJ/kg-mol , T in K",
        "Coefficient A": "2.076894E+02",
        "Coefficient B": "-2.119964E-02",
        "Coefficient C": "4.193103E-03",
        "Coefficient D": "-5.829574E-06",
        "Coefficient E": "2.449038E-09",
        "Coefficient F": NaN,
        "Coefficient G": NaN,
        "T range, from": NaN,
        "T range, to": NaN
    },
    "Heat Capacity (Liquid)": NaN,
    "Viscosity (Gas, Low P)": NaN,
    "Viscosity (Liquid)": {
        "Equation Name": "Andrade Equation",
        "Equation": "ln (VISL) = A + B/ T  where T in K and VISL in cP.",
        "Coefficient A": "-4.643",
        "Coefficient B": "1827",
        "Coefficient C": "0",
        "Coefficient D": "0",
        "Coefficient E": NaN,
        "Coefficient F": NaN,
        "Coefficient G": NaN,
        "T range, from": "308.15 K",
        "T range, to": "573.15 K"
    },
    "Themal Conductivity (Gas, Low P)": NaN,
    "Themal Conductivity (Liquid)": NaN,
    "Surface Tension": NaN,
    "Partial Molar Volume (VOLP)": NaN,
    "Solubility Parameters (SOLP)": "1.648455E+04 (J/cm^3)^0.5",
    "SRK accentric factor (WSRK)": "8.328000E-01",
    "COSTALD Characteristic Volume (VSTAR)": "1.271500E+00 m^3/kg-mol",
    "Rackett parameter (ZRA)": "2.236000E-01",
    "Aniline Point (ANP)": NaN,
    "H(formation,ideal gas)at 25 C": "-4.354000E+05 kJ/kg-mol",
    "G(formation,ideal gas) at 25 C": "1.090000E+05 kJ/kg-mol",
    "Heat of Combustion, Gross form (HCB1)": NaN,
    "Heat of Combustion, Net form (HCB2)": NaN,
    "Van der Waals Volume (VDWV)": NaN,
    "Van der Waals Area (VDWA)": NaN,
    "UNIQUAC Ri Parameter (RI)": NaN,
    "UNIQUAC Qi Parameter (QI)": NaN,
    "Dipole Moment (DM)": NaN,
    "Radius of Gyration (GYRAD)": NaN,
    "Liquid Density (DENL)": "2.938274E-03 g-mol/cm^3",
    "Temperature of DENL (TDENL)": "3.050000E+02 K",
    "Heat of Vaporizaiton (HVAP)": "5.602400E+04 kJ/kg-mol",
    "Temperature of HVAP (THVAP)": "6.032000E+02 K",
    "Surface Tension (SRF)": "2.607000E+01 dyn/cm",
    "Temperature of SRF (TSRF)": "3.232000E+02 K",
    "Dielectric Constant (DIEL)": NaN,
    "Temperature of DIEL (TDIEL)": NaN,
    "Refractive Index (RFI)": NaN,
    "Temperature of RFI (TRFI)": NaN,
    "Lower Flammability Limit(FLL)": NaN,
    "Upper Flammability Limit(FLU)": NaN,
    "Flash Point (Open Cup Method)": NaN,
    "Flash Point (Closed Cup Method)": NaN,
    "Autoignition Temperature (AIGT)": NaN,
    "NFPA Rating (Health)": NaN,
    "NFPA Rating (Fire)": NaN,
    "NFPA Rating (Safety)": NaN,
    "Class": "Paraffinic Hydrocarbons",
    "Subclass": "n-Alkanes",
    "SMILES": "CCCCCCCCCCCCCCCCCCC"
}