{
    "ID": "190",
    "Name": "1-PENTENE",
    "Synonyms": "PROPYLETHYLENE, PENTENE-1, PENT-1-ENE",
    "CAS No.": "109-67-1",
    "Formula": "C5H10",
    "Molecular Wt. (WT)": "7.01340E+01",
    "Normal Boiling Point Temp. (TB)": "3.03110E+02 K",
    "Freezing Point Temp. (TF)": "1.07900E+02 K",
    "Triple Point Temp. (TT)": NaN,
    "Triple Point Press. (PT)": NaN,
    "Critical Temperature. (TC)": "4.64800E+02 K",
    "Critical Pressure (PC)": "3.56000E+03 kPa",
    "Critical Volume (VC)": "2.98400E-01 m^3/kg-mol",
    "Critical Compressibility (ZC)": "2.74882E-01",
    "Accentric Factor (ACCF)": "2.33000E-01",
    "Vapor Pressure": {
        "Equation Name": "KDB Correlation Equation",
        "Equation": "ln(Pvp) = A*ln(T) + B/T + C + D*T^2 where Pvp in kPa, T in K",
        "Coefficient A": "-1.070678E+01",
        "Coefficient B": "-5.675649E+03",
        "Coefficient C": "8.332140E+01",
        "Coefficient D": "1.314212E-05",
        "Coefficient E": NaN,
        "Coefficient F": NaN,
        "Coefficient G": NaN,
        "T range, from": "110.00 K",
        "T range, to": "464.78 K"
    },
    "Heat Capacity (Ideal Gas)": {
        "Equation Name": "Polynomial Equation",
        "Equation": "Cp = A + B*T + C*T^2 + D*T^3 + E*T^4  where Cp in kJ/kg-mol , T in K",
        "Coefficient A": "1.703628E+01",
        "Coefficient B": "3.121318E-01",
        "Coefficient C": "4.587410E-05",
        "Coefficient D": "-2.113957E-07",
        "Coefficient E": "8.265589E-11",
        "Coefficient F": NaN,
        "Coefficient G": NaN,
        "T range, from": NaN,
        "T range, to": NaN
    },
    "Heat Capacity (Liquid)": NaN,
    "Viscosity (Gas, Low P)": NaN,
    "Viscosity (Liquid)": {
        "Equation Name": "Andrade Equation",
        "Equation": "ln (VISL) = A + B/ T  where T in K and VISL in cP.",
        "Coefficient A": "-4.023",
        "Coefficient B": "702.9",
        "Coefficient C": "0",
        "Coefficient D": "0",
        "Coefficient E": NaN,
        "Coefficient F": NaN,
        "Coefficient G": NaN,
        "T range, from": "183.15 K",
        "T range, to": "273.15 K"
    },
    "Themal Conductivity (Gas, Low P)": NaN,
    "Themal Conductivity (Liquid)": NaN,
    "Surface Tension": NaN,
    "Partial Molar Volume (VOLP)": "1.103900E-01 m^3/kg-mol",
    "Solubility Parameters (SOLP)": "1.444111E+04 (J/cm^3)^0.5",
    "SRK accentric factor (WSRK)": "2.824000E-01",
    "COSTALD Characteristic Volume (VSTAR)": "2.951000E-01 m^3/kg-mol",
    "Rackett parameter (ZRA)": "2.680000E-01",
    "Aniline Point (ANP)": "2.921500E+02 K",
    "H(formation,ideal gas)at 25 C": "-2.093000E+04 kJ/kg-mol",
    "G(formation,ideal gas) at 25 C": "7.917000E+04 kJ/kg-mol",
    "Heat of Combustion, Gross form (HCB1)": "3.350045E+06 kJ/kg-mol",
    "Heat of Combustion, Net form (HCB2)": "3.130009E+06 kJ/kg-mol",
    "Van der Waals Volume (VDWV)": NaN,
    "Van der Waals Area (VDWA)": NaN,
    "UNIQUAC Ri Parameter (RI)": "3.595300E+00",
    "UNIQUAC Qi Parameter (QI)": "3.104000E+00",
    "Dipole Moment (DM)": "4.000000E-01 debye",
    "Radius of Gyration (GYRAD)": NaN,
    "Liquid Density (DENL)": "9.125388E-03 g-mol/cm^3",
    "Temperature of DENL (TDENL)": "2.930000E+02 K",
    "Heat of Vaporizaiton (HVAP)": "2.519600E+04 kJ/kg-mol",
    "Temperature of HVAP (THVAP)": "3.058000E+02 K",
    "Surface Tension (SRF)": "1.545000E+01 dyn/cm",
    "Temperature of SRF (TSRF)": "2.982000E+02 K",
    "Dielectric Constant (DIEL)": NaN,
    "Temperature of DIEL (TDIEL)": NaN,
    "Refractive Index (RFI)": "1.368350E+00",
    "Temperature of RFI (TRFI)": "2.981500E+02 K",
    "Lower Flammability Limit(FLL)": "1.400000E+00 % in Air",
    "Upper Flammability Limit(FLU)": "8.700000E+00 % in Air",
    "Flash Point (Open Cup Method)": "2.220389E+02 K",
    "Flash Point (Closed Cup Method)": "2.553722E+02 K",
    "Autoignition Temperature (AIGT)": "5.481500E+02 K",
    "NFPA Rating (Health)": "1",
    "NFPA Rating (Fire)": "4",
    "NFPA Rating (Safety)": NaN,
    "Class": "Unsaturated Hydrocarbons",
    "Subclass": "Alkenes",
    "SMILES": "CCCC=C"
}