{
    "ID": "1904",
    "Name": "HYDROGEN BROMIDE",
    "Synonyms": "HYDROBROMIC ACID, ANHYDROUS HYDROBROMIC ACID",
    "CAS No.": "10035-10-6",
    "Formula": "HBr",
    "Molecular Wt. (WT)": "8.09119E+01",
    "Normal Boiling Point Temp. (TB)": "2.06770E+02 K",
    "Freezing Point Temp. (TF)": "1.86340E+02 K",
    "Triple Point Temp. (TT)": NaN,
    "Triple Point Press. (PT)": NaN,
    "Critical Temperature. (TC)": "3.63200E+02 K",
    "Critical Pressure (PC)": "8.55000E+03 kPa",
    "Critical Volume (VC)": NaN,
    "Critical Compressibility (ZC)": NaN,
    "Accentric Factor (ACCF)": "8.80000E-02",
    "Vapor Pressure": {
        "Equation Name": "KDB Correlation Equation",
        "Equation": "ln(Pvp) = A*ln(T) + B/T + C + D*T^2 where Pvp in kPa, T in K",
        "Coefficient A": "-1.217248E+00",
        "Coefficient B": "-2.830646E+03",
        "Coefficient C": "2.491703E+01",
        "Coefficient D": "3.593065E-06",
        "Coefficient E": NaN,
        "Coefficient F": NaN,
        "Coefficient G": NaN,
        "T range, from": "153.15 K",
        "T range, to": "186.15 K"
    },
    "Heat Capacity (Ideal Gas)": {
        "Equation Name": "Polynomial Equation",
        "Equation": "Cp = A + B*T + C*T^2 + D*T^3 + E*T^4  where Cp in kJ/kg-mol , T in K",
        "Coefficient A": "3.065000E+01",
        "Coefficient B": "-9.462000E-03",
        "Coefficient C": "1.722000E-05",
        "Coefficient D": "-6.238E-09",
        "Coefficient E": "0",
        "Coefficient F": NaN,
        "Coefficient G": NaN,
        "T range, from": NaN,
        "T range, to": NaN
    },
    "Heat Capacity (Liquid)": {
        "Equation Name": "Polynomial Equation",
        "Equation": "Cp = A + B*T + C*T^2 + D*T^3  where T in K and Cp in kJ/kg-mol.K",
        "Coefficient A": "-215.0715",
        "Coefficient B": "3.392125",
        "Coefficient C": "-1.403906E-02",
        "Coefficient D": "1.995666E-05",
        "Coefficient E": NaN,
        "Coefficient F": NaN,
        "Coefficient G": NaN,
        "T range, from": "186.25 K",
        "T range, to": "353.15 K"
    },
    "Viscosity (Gas, Low P)": {
        "Equation Name": "Polynomial Equation",
        "Equation": "VISG = A + B*T + C*T^2 where T in K and VISG in cP",
        "Coefficient A": "-.002337",
        "Coefficient B": "7.402999E-05",
        "Coefficient C": "-1.448E-08",
        "Coefficient D": "0",
        "Coefficient E": NaN,
        "Coefficient F": NaN,
        "Coefficient G": NaN,
        "T range, from": "153.15 K",
        "T range, to": "1473.15 K"
    },
    "Viscosity (Liquid)": {
        "Equation Name": "Quasipolynomial Equation",
        "Equation": "ln (VISL) = A + B/T + C*T + D*T^2  where T in K and VISL in cP.",
        "Coefficient A": "-21.27",
        "Coefficient B": "1996",
        "Coefficient C": ".07902",
        "Coefficient D": "-.0001191",
        "Coefficient E": NaN,
        "Coefficient F": NaN,
        "Coefficient G": NaN,
        "T range, from": "185.15 K",
        "T range, to": "363.15 K"
    },
    "Themal Conductivity (Gas, Low P)": {
        "Equation Name": "Polynomial Equation",
        "Equation": "THG = A + B*T + C*T^2 + D*T^3  where T in K and THG in W/m.K",
        "Coefficient A": "-.0007915",
        "Coefficient B": "3.836E-05",
        "Coefficient C": "-1.089E-08",
        "Coefficient D": "2.219E-12",
        "Coefficient E": NaN,
        "Coefficient F": NaN,
        "Coefficient G": NaN,
        "T range, from": "125 K",
        "T range, to": "1670 K"
    },
    "Themal Conductivity (Liquid)": {
        "Equation Name": "Polynomial Equation",
        "Equation": "THL = A + B*T + C*T^2 + D*T^3  where T in K and THL in W/m.K",
        "Coefficient A": ".2428",
        "Coefficient B": ".0001605",
        "Coefficient C": "-1.721E-06",
        "Coefficient D": "0",
        "Coefficient E": NaN,
        "Coefficient F": NaN,
        "Coefficient G": NaN,
        "T range, from": "186 K",
        "T range, to": "343 K"
    },
    "Surface Tension": NaN,
    "Partial Molar Volume (VOLP)": NaN,
    "Solubility Parameters (SOLP)": "1.420792E+04 (J/cm^3)^0.5",
    "SRK accentric factor (WSRK)": "7.790000E-02",
    "COSTALD Characteristic Volume (VSTAR)": "9.920000E-02 m^3/kg-mol",
    "Rackett parameter (ZRA)": NaN,
    "Aniline Point (ANP)": NaN,
    "H(formation,ideal gas)at 25 C": "-3.626000E+04 kJ/kg-mol",
    "G(formation,ideal gas) at 25 C": "-5.330000E+04 kJ/kg-mol",
    "Heat of Combustion, Gross form (HCB1)": NaN,
    "Heat of Combustion, Net form (HCB2)": NaN,
    "Van der Waals Volume (VDWV)": NaN,
    "Van der Waals Area (VDWA)": NaN,
    "UNIQUAC Ri Parameter (RI)": NaN,
    "UNIQUAC Qi Parameter (QI)": NaN,
    "Dipole Moment (DM)": "8.000000E-01 debye",
    "Radius of Gyration (GYRAD)": NaN,
    "Liquid Density (DENL)": "2.669570E-02 g-mol/cm^3",
    "Temperature of DENL (TDENL)": "2.160000E+02 K",
    "Heat of Vaporizaiton (HVAP)": NaN,
    "Temperature of HVAP (THVAP)": NaN,
    "Surface Tension (SRF)": NaN,
    "Temperature of SRF (TSRF)": NaN,
    "Dielectric Constant (DIEL)": NaN,
    "Temperature of DIEL (TDIEL)": NaN,
    "Refractive Index (RFI)": NaN,
    "Temperature of RFI (TRFI)": NaN,
    "Lower Flammability Limit(FLL)": NaN,
    "Upper Flammability Limit(FLU)": NaN,
    "Flash Point (Open Cup Method)": NaN,
    "Flash Point (Closed Cup Method)": NaN,
    "Autoignition Temperature (AIGT)": NaN,
    "NFPA Rating (Health)": NaN,
    "NFPA Rating (Fire)": NaN,
    "NFPA Rating (Safety)": NaN,
    "Class": "Inorganics",
    "Subclass": "Inorganics",
    "SMILES": "Br"
}