{
    "ID": "1905",
    "Name": "HYDROGEN CHLORIDE",
    "Synonyms": "HYDROCHLORIC ACID, BASILIN, CHLOROHYDRIC ACID",
    "CAS No.": "7647-01-0",
    "Formula": "HCl",
    "Molecular Wt. (WT)": "3.64609E+01",
    "Normal Boiling Point Temp. (TB)": "1.88000E+02 K",
    "Freezing Point Temp. (TF)": "1.58970E+02 K",
    "Triple Point Temp. (TT)": "1.58800E+02 K",
    "Triple Point Press. (PT)": NaN,
    "Critical Temperature. (TC)": "3.24700E+02 K",
    "Critical Pressure (PC)": "8.31000E+03 kPa",
    "Critical Volume (VC)": "8.10000E-02 m^3/kg-mol",
    "Critical Compressibility (ZC)": "2.49326E-01",
    "Accentric Factor (ACCF)": "1.33000E-01",
    "Vapor Pressure": {
        "Equation Name": "KDB Correlation Equation",
        "Equation": "ln(Pvp) = A*ln(T) + B/T + C + D*T^2 where Pvp in kPa, T in K",
        "Coefficient A": "-5.839920E+00",
        "Coefficient B": "-2.875888E+03",
        "Coefficient C": "4.989163E+01",
        "Coefficient D": "1.682968E-05",
        "Coefficient E": NaN,
        "Coefficient F": NaN,
        "Coefficient G": NaN,
        "T range, from": "146.15 K",
        "T range, to": "313.15 K"
    },
    "Heat Capacity (Ideal Gas)": {
        "Equation Name": "Polynomial Equation",
        "Equation": "Cp = A + B*T + C*T^2 + D*T^3 + E*T^4  where Cp in kJ/kg-mol , T in K",
        "Coefficient A": "2.917856E+01",
        "Coefficient B": "-1.797022E-04",
        "Coefficient C": "-2.569906E-06",
        "Coefficient D": "9.253443E-09",
        "Coefficient E": "-4.08024E-12",
        "Coefficient F": NaN,
        "Coefficient G": NaN,
        "T range, from": NaN,
        "T range, to": NaN
    },
    "Heat Capacity (Liquid)": {
        "Equation Name": "Polynomial Equation",
        "Equation": "Cp = A + B*T + C*T^2 + D*T^3  where T in K and Cp in kJ/kg-mol.K",
        "Coefficient A": "-17.10112",
        "Coefficient B": "1.075189",
        "Coefficient C": "-5.386625E-03",
        "Coefficient D": "1.010049E-05",
        "Coefficient E": NaN,
        "Coefficient F": NaN,
        "Coefficient G": NaN,
        "T range, from": "158.95 K",
        "T range, to": "293.15 K"
    },
    "Viscosity (Gas, Low P)": {
        "Equation Name": "Polynomial Equation",
        "Equation": "VISG = A + B*T + C*T^2 where T in K and VISG in cP",
        "Coefficient A": "-9.553999E-04",
        "Coefficient B": "5.445E-05",
        "Coefficient C": "-9.656E-09",
        "Coefficient D": "0",
        "Coefficient E": NaN,
        "Coefficient F": NaN,
        "Coefficient G": NaN,
        "T range, from": "153.15 K",
        "T range, to": "1673.15 K"
    },
    "Viscosity (Liquid)": {
        "Equation Name": "Quasipolynomial Equation",
        "Equation": "ln (VISL) = A + B/T + C*T + D*T^2  where T in K and VISL in cP.",
        "Coefficient A": "-3.488",
        "Coefficient B": "448.1",
        "Coefficient C": ".007062",
        "Coefficient D": "-3.168E-05",
        "Coefficient E": NaN,
        "Coefficient F": NaN,
        "Coefficient G": NaN,
        "T range, from": "163.15 K",
        "T range, to": "323.15 K"
    },
    "Themal Conductivity (Gas, Low P)": {
        "Equation Name": "Polynomial Equation",
        "Equation": "THG = A + B*T + C*T^2 + D*T^3  where T in K and THG in W/m.K",
        "Coefficient A": "-.0001089",
        "Coefficient B": "5.306E-05",
        "Coefficient C": "-1.047E-08",
        "Coefficient D": "6.7E-13",
        "Coefficient E": NaN,
        "Coefficient F": NaN,
        "Coefficient G": NaN,
        "T range, from": "125 K",
        "T range, to": "1670 K"
    },
    "Themal Conductivity (Liquid)": {
        "Equation Name": "Polynomial Equation",
        "Equation": "THL = A + B*T + C*T^2 + D*T^3  where T in K and THL in W/m.K",
        "Coefficient A": ".4487",
        "Coefficient B": "-7.721E-05",
        "Coefficient C": "-2.756E-06",
        "Coefficient D": "0",
        "Coefficient E": NaN,
        "Coefficient F": NaN,
        "Coefficient G": NaN,
        "T range, from": "159 K",
        "T range, to": "304 K"
    },
    "Surface Tension": NaN,
    "Partial Molar Volume (VOLP)": NaN,
    "Solubility Parameters (SOLP)": "1.200698E+04 (J/cm^3)^0.5",
    "SRK accentric factor (WSRK)": "1.254000E-01",
    "COSTALD Characteristic Volume (VSTAR)": "8.380000E-02 m^3/kg-mol",
    "Rackett parameter (ZRA)": "2.653000E-01",
    "Aniline Point (ANP)": NaN,
    "H(formation,ideal gas)at 25 C": "-9.236000E+04 kJ/kg-mol",
    "G(formation,ideal gas) at 25 C": "9.530000E+04 kJ/kg-mol",
    "Heat of Combustion, Gross form (HCB1)": NaN,
    "Heat of Combustion, Net form (HCB2)": NaN,
    "Van der Waals Volume (VDWV)": NaN,
    "Van der Waals Area (VDWA)": NaN,
    "UNIQUAC Ri Parameter (RI)": "1.000000E+00",
    "UNIQUAC Qi Parameter (QI)": "1.000000E+00",
    "Dipole Moment (DM)": "1.100000E+00 debye",
    "Radius of Gyration (GYRAD)": "2.990000E-01",
    "Liquid Density (DENL)": "3.271998E-02 g-mol/cm^3",
    "Temperature of DENL (TDENL)": "1.880000E+02 K",
    "Heat of Vaporizaiton (HVAP)": NaN,
    "Temperature of HVAP (THVAP)": NaN,
    "Surface Tension (SRF)": NaN,
    "Temperature of SRF (TSRF)": NaN,
    "Dielectric Constant (DIEL)": NaN,
    "Temperature of DIEL (TDIEL)": NaN,
    "Refractive Index (RFI)": NaN,
    "Temperature of RFI (TRFI)": NaN,
    "Lower Flammability Limit(FLL)": NaN,
    "Upper Flammability Limit(FLU)": NaN,
    "Flash Point (Open Cup Method)": NaN,
    "Flash Point (Closed Cup Method)": NaN,
    "Autoignition Temperature (AIGT)": NaN,
    "NFPA Rating (Health)": NaN,
    "NFPA Rating (Fire)": NaN,
    "NFPA Rating (Safety)": NaN,
    "Class": "Inorganics",
    "Subclass": "Inorganics",
    "SMILES": "Cl"
}