{
    "ID": "1907",
    "Name": "HYDROGEN FLUORIDE",
    "Synonyms": "HYDROFLUORIC ACID, ANHYDROUS HYDROFLUORIC ACID, FLUORIC ACID",
    "CAS No.": "7664-39-3",
    "Formula": "HF",
    "Molecular Wt. (WT)": "2.00063E+01",
    "Normal Boiling Point Temp. (TB)": "2.93000E+02 K",
    "Freezing Point Temp. (TF)": "1.89790E+02 K",
    "Triple Point Temp. (TT)": NaN,
    "Triple Point Press. (PT)": NaN,
    "Critical Temperature. (TC)": "4.61000E+02 K",
    "Critical Pressure (PC)": "6.48000E+03 kPa",
    "Critical Volume (VC)": "6.90000E-02 m^3/kg-mol",
    "Critical Compressibility (ZC)": "1.16650E-01",
    "Accentric Factor (ACCF)": "3.29000E-01",
    "Vapor Pressure": {
        "Equation Name": "KDB Correlation Equation",
        "Equation": "ln(Pvp) = A*ln(T) + B/T + C + D*T^2 where Pvp in kPa, T in K",
        "Coefficient A": "2.154705E+00",
        "Coefficient B": "-2.274959E+03",
        "Coefficient C": "-5.551360E-02",
        "Coefficient D": "2.463275E-06",
        "Coefficient E": NaN,
        "Coefficient F": NaN,
        "Coefficient G": NaN,
        "T range, from": "218.15 K",
        "T range, to": "461.00 K"
    },
    "Heat Capacity (Ideal Gas)": {
        "Equation Name": "Polynomial Equation",
        "Equation": "Cp = A + B*T + C*T^2 + D*T^3 + E*T^4  where Cp in kJ/kg-mol , T in K",
        "Coefficient A": "2.911562E+01",
        "Coefficient B": "3.479773E-04",
        "Coefficient C": "-2.402581E-06",
        "Coefficient D": "4.430063E-09",
        "Coefficient E": "-1.34958E-12",
        "Coefficient F": NaN,
        "Coefficient G": NaN,
        "T range, from": NaN,
        "T range, to": NaN
    },
    "Heat Capacity (Liquid)": {
        "Equation Name": "Polynomial Equation",
        "Equation": "Cp = A + B*T + C*T^2 + D*T^3  where T in K and Cp in kJ/kg-mol.K",
        "Coefficient A": "-118.3608",
        "Coefficient B": "1.708447",
        "Coefficient C": "-5.793317E-03",
        "Coefficient D": "6.997014E-06",
        "Coefficient E": NaN,
        "Coefficient F": NaN,
        "Coefficient G": NaN,
        "T range, from": "189.65 K",
        "T range, to": "448.15 K"
    },
    "Viscosity (Gas, Low P)": {
        "Equation Name": "Polynomial Equation",
        "Equation": "VISG = A + B*T + C*T^2 where T in K and VISG in cP",
        "Coefficient A": "-.001921",
        "Coefficient B": "4.598E-05",
        "Coefficient C": "-7.995999E-09",
        "Coefficient D": "0",
        "Coefficient E": NaN,
        "Coefficient F": NaN,
        "Coefficient G": NaN,
        "T range, from": "153.15 K",
        "T range, to": "1673.15 K"
    },
    "Viscosity (Liquid)": {
        "Equation Name": "Quasipolynomial Equation",
        "Equation": "ln (VISL) = A + B/T + C*T + D*T^2  where T in K and VISL in cP.",
        "Coefficient A": "-14.04",
        "Coefficient B": "1879",
        "Coefficient C": ".02975",
        "Coefficient D": "-.0000306",
        "Coefficient E": NaN,
        "Coefficient F": NaN,
        "Coefficient G": NaN,
        "T range, from": "193.15 K",
        "T range, to": "453.15 K"
    },
    "Themal Conductivity (Gas, Low P)": {
        "Equation Name": "Polynomial Equation",
        "Equation": "THG = A + B*T + C*T^2 + D*T^3  where T in K and THG in W/m.K",
        "Coefficient A": ".003857",
        "Coefficient B": "5.276E-05",
        "Coefficient C": "2.261E-08",
        "Coefficient D": "-9.841E-13",
        "Coefficient E": NaN,
        "Coefficient F": NaN,
        "Coefficient G": NaN,
        "T range, from": "175 K",
        "T range, to": "1670 K"
    },
    "Themal Conductivity (Liquid)": {
        "Equation Name": "Polynomial Equation",
        "Equation": "THL = A + B*T + C*T^2 + D*T^3  where T in K and THL in W/m.K",
        "Coefficient A": ".71",
        "Coefficient B": "-.0008622",
        "Coefficient C": "-6.44E-07",
        "Coefficient D": "0",
        "Coefficient E": NaN,
        "Coefficient F": NaN,
        "Coefficient G": NaN,
        "T range, from": "190 K",
        "T range, to": "438 K"
    },
    "Surface Tension": NaN,
    "Partial Molar Volume (VOLP)": NaN,
    "Solubility Parameters (SOLP)": "3.645050E+04 (J/cm^3)^0.5",
    "SRK accentric factor (WSRK)": "3.281000E-01",
    "COSTALD Characteristic Volume (VSTAR)": "5.860000E-02 m^3/kg-mol",
    "Rackett parameter (ZRA)": "1.451000E-01",
    "Aniline Point (ANP)": NaN,
    "H(formation,ideal gas)at 25 C": "2.731000E+05 kJ/kg-mol",
    "G(formation,ideal gas) at 25 C": "-2.734000E+05 kJ/kg-mol",
    "Heat of Combustion, Gross form (HCB1)": NaN,
    "Heat of Combustion, Net form (HCB2)": NaN,
    "Van der Waals Volume (VDWV)": NaN,
    "Van der Waals Area (VDWA)": NaN,
    "UNIQUAC Ri Parameter (RI)": NaN,
    "UNIQUAC Qi Parameter (QI)": NaN,
    "Dipole Moment (DM)": "1.900000E+00 debye",
    "Radius of Gyration (GYRAD)": NaN,
    "Liquid Density (DENL)": "4.833477E-02 g-mol/cm^3",
    "Temperature of DENL (TDENL)": "2.930000E+02 K",
    "Heat of Vaporizaiton (HVAP)": NaN,
    "Temperature of HVAP (THVAP)": NaN,
    "Surface Tension (SRF)": NaN,
    "Temperature of SRF (TSRF)": NaN,
    "Dielectric Constant (DIEL)": NaN,
    "Temperature of DIEL (TDIEL)": NaN,
    "Refractive Index (RFI)": NaN,
    "Temperature of RFI (TRFI)": NaN,
    "Lower Flammability Limit(FLL)": NaN,
    "Upper Flammability Limit(FLU)": NaN,
    "Flash Point (Open Cup Method)": NaN,
    "Flash Point (Closed Cup Method)": NaN,
    "Autoignition Temperature (AIGT)": NaN,
    "NFPA Rating (Health)": NaN,
    "NFPA Rating (Fire)": NaN,
    "NFPA Rating (Safety)": NaN,
    "Class": "Inorganics",
    "Subclass": "Inorganics",
    "SMILES": "F"
}