{
    "ID": "1912",
    "Name": "HYDROGEN",
    "Synonyms": "P-HYDROGEN",
    "CAS No.": "1333-74-0",
    "Formula": "H2",
    "Molecular Wt. (WT)": "2.01580E+00",
    "Normal Boiling Point Temp. (TB)": "2.02800E+01 K",
    "Freezing Point Temp. (TF)": "1.38100E+01 K",
    "Triple Point Temp. (TT)": "1.38000E+01 K",
    "Triple Point Press. (PT)": "7.04200E+00 kPa",
    "Critical Temperature. (TC)": "3.29700E+01 K",
    "Critical Pressure (PC)": "1.29300E+03 kPa",
    "Critical Volume (VC)": "6.50000E-02 m^3/kg-mol",
    "Critical Compressibility (ZC)": "3.06589E-01",
    "Accentric Factor (ACCF)": "-2.16000E-01",
    "Vapor Pressure": {
        "Equation Name": "KDB Correlation Equation",
        "Equation": "ln(Pvp) = A*ln(T) + B/T + C + D*T^2 where Pvp in kPa, T in K",
        "Coefficient A": "4.200405E+00",
        "Coefficient B": "-5.256658E+01",
        "Coefficient C": "-5.200397E+00",
        "Coefficient D": "-6.967170E-04",
        "Coefficient E": NaN,
        "Coefficient F": NaN,
        "Coefficient G": NaN,
        "T range, from": "14.00 K",
        "T range, to": "32.62 K"
    },
    "Heat Capacity (Ideal Gas)": {
        "Equation Name": "Polynomial Equation",
        "Equation": "Cp = A + B*T + C*T^2 + D*T^3 + E*T^4  where Cp in kJ/kg-mol , T in K",
        "Coefficient A": "2.700357E+01",
        "Coefficient B": "1.193388E-02",
        "Coefficient C": "-2.407279E-05",
        "Coefficient D": "2.146124E-08",
        "Coefficient E": "-6.14796E-12",
        "Coefficient F": NaN,
        "Coefficient G": NaN,
        "T range, from": NaN,
        "T range, to": NaN
    },
    "Heat Capacity (Liquid)": {
        "Equation Name": "Polynomial Equation",
        "Equation": "Cp = A + B*T + C*T^2 + D*T^3  where T in K and Cp in kJ/kg-mol.K",
        "Coefficient A": "31.96527",
        "Coefficient B": "-2.781568",
        "Coefficient C": ".1026507",
        "Coefficient D": "-2.053536E-05",
        "Coefficient E": NaN,
        "Coefficient F": NaN,
        "Coefficient G": NaN,
        "T range, from": "13.75 K",
        "T range, to": "28.14999 K"
    },
    "Viscosity (Gas, Low P)": {
        "Equation Name": "Polynomial Equation",
        "Equation": "VISG = A + B*T + C*T^2 where T in K and VISG in cP",
        "Coefficient A": ".002187",
        "Coefficient B": ".0000222",
        "Coefficient C": "-3.751E-09",
        "Coefficient D": "0",
        "Coefficient E": NaN,
        "Coefficient F": NaN,
        "Coefficient G": NaN,
        "T range, from": "113.15 K",
        "T range, to": "1473.15 K"
    },
    "Viscosity (Liquid)": {
        "Equation Name": "Quasipolynomial Equation",
        "Equation": "ln (VISL) = A + B/T + C*T + D*T^2  where T in K and VISL in cP.",
        "Coefficient A": "-11.18",
        "Coefficient B": "57.86",
        "Coefficient C": ".3244",
        "Coefficient D": "-.006385",
        "Coefficient E": NaN,
        "Coefficient F": NaN,
        "Coefficient G": NaN,
        "T range, from": "15.14999 K",
        "T range, to": "33.14999 K"
    },
    "Themal Conductivity (Gas, Low P)": {
        "Equation Name": "Polynomial Equation",
        "Equation": "THG = A + B*T + C*T^2 + D*T^3  where T in K and THG in W/m.K",
        "Coefficient A": ".008099",
        "Coefficient B": ".0006689",
        "Coefficient C": "-4.158E-07",
        "Coefficient D": "1.562E-10",
        "Coefficient E": NaN,
        "Coefficient F": NaN,
        "Coefficient G": NaN,
        "T range, from": "115 K",
        "T range, to": "1470 K"
    },
    "Themal Conductivity (Liquid)": {
        "Equation Name": "Polynomial Equation",
        "Equation": "THL = A + B*T + C*T^2 + D*T^3  where T in K and THL in W/m.K",
        "Coefficient A": "-8.545999E-03",
        "Coefficient B": ".01036",
        "Coefficient C": "-.0002239",
        "Coefficient D": "0",
        "Coefficient E": NaN,
        "Coefficient F": NaN,
        "Coefficient G": NaN,
        "T range, from": "14 K",
        "T range, to": "32 K"
    },
    "Surface Tension": NaN,
    "Partial Molar Volume (VOLP)": NaN,
    "Solubility Parameters (SOLP)": "6.647819E+03 (J/cm^3)^0.5",
    "SRK accentric factor (WSRK)": NaN,
    "COSTALD Characteristic Volume (VSTAR)": NaN,
    "Rackett parameter (ZRA)": NaN,
    "Aniline Point (ANP)": NaN,
    "H(formation,ideal gas)at 25 C": NaN,
    "G(formation,ideal gas) at 25 C": NaN,
    "Heat of Combustion, Gross form (HCB1)": NaN,
    "Heat of Combustion, Net form (HCB2)": NaN,
    "Van der Waals Volume (VDWV)": NaN,
    "Van der Waals Area (VDWA)": NaN,
    "UNIQUAC Ri Parameter (RI)": NaN,
    "UNIQUAC Qi Parameter (QI)": NaN,
    "Dipole Moment (DM)": "0.000000E+00 debye",
    "Radius of Gyration (GYRAD)": "3.710000E-01",
    "Liquid Density (DENL)": "3.522175E-02 g-mol/cm^3",
    "Temperature of DENL (TDENL)": "2.000000E+01 K",
    "Heat of Vaporizaiton (HVAP)": NaN,
    "Temperature of HVAP (THVAP)": NaN,
    "Surface Tension (SRF)": NaN,
    "Temperature of SRF (TSRF)": NaN,
    "Dielectric Constant (DIEL)": NaN,
    "Temperature of DIEL (TDIEL)": NaN,
    "Refractive Index (RFI)": NaN,
    "Temperature of RFI (TRFI)": NaN,
    "Lower Flammability Limit(FLL)": NaN,
    "Upper Flammability Limit(FLU)": NaN,
    "Flash Point (Open Cup Method)": NaN,
    "Flash Point (Closed Cup Method)": NaN,
    "Autoignition Temperature (AIGT)": NaN,
    "NFPA Rating (Health)": NaN,
    "NFPA Rating (Fire)": 4.0,
    "NFPA Rating (Safety)": NaN,
    "Class": "Inorganics",
    "Subclass": "Inorganics",
    "SMILES": "[HH]"
}