{
    "ID": "1914",
    "Name": "WATER",
    "Synonyms": "DIHYDROGEN OXIDE",
    "CAS No.": "7732-18-5",
    "Formula": "H2O",
    "Molecular Wt. (WT)": "1.80152E+01",
    "Normal Boiling Point Temp. (TB)": "3.73150E+02 K",
    "Freezing Point Temp. (TF)": "2.73150E+02 K",
    "Triple Point Temp. (TT)": "2.73160E+02 K",
    "Triple Point Press. (PT)": "6.11730E-01 kPa",
    "Critical Temperature. (TC)": "6.47140E+02 K",
    "Critical Pressure (PC)": "2.20600E+04 kPa",
    "Critical Volume (VC)": "5.60000E-02 m^3/kg-mol",
    "Critical Compressibility (ZC)": "2.29593E-01",
    "Accentric Factor (ACCF)": "3.44000E-01",
    "Vapor Pressure": {
        "Equation Name": "KDB Correlation Equation",
        "Equation": "ln(Pvp) = A*ln(T) + B/T + C + D*T^2 where Pvp in kPa, T in K",
        "Coefficient A": "-7.342973E+00",
        "Coefficient B": "-7.276391E+03",
        "Coefficient C": "6.702455E+01",
        "Coefficient D": "4.161914E-06",
        "Coefficient E": NaN,
        "Coefficient F": NaN,
        "Coefficient G": NaN,
        "T range, from": "274.15 K",
        "T range, to": "647.00 K"
    },
    "Heat Capacity (Ideal Gas)": {
        "Equation Name": "Polynomial Equation",
        "Equation": "Cp = A + B*T + C*T^2 + D*T^3 + E*T^4  where Cp in kJ/kg-mol , T in K",
        "Coefficient A": "3.376336E+01",
        "Coefficient B": "-5.945958E-03",
        "Coefficient C": "2.235754E-05",
        "Coefficient D": "-9.962009E-09",
        "Coefficient E": "1.097487E-12",
        "Coefficient F": NaN,
        "Coefficient G": NaN,
        "T range, from": NaN,
        "T range, to": NaN
    },
    "Heat Capacity (Liquid)": {
        "Equation Name": "Polynomial Equation",
        "Equation": "Cp = A + B*T + C*T^2 + D*T^3  where T in K and Cp in kJ/kg-mol.K",
        "Coefficient A": "50.81069",
        "Coefficient B": ".2129361",
        "Coefficient C": "-6.309691E-04",
        "Coefficient D": "6.483055E-07",
        "Coefficient E": NaN,
        "Coefficient F": NaN,
        "Coefficient G": NaN,
        "T range, from": "273.15 K",
        "T range, to": "623.15 K"
    },
    "Viscosity (Gas, Low P)": {
        "Equation Name": "Polynomial Equation",
        "Equation": "VISG = A + B*T + C*T^2 where T in K and VISG in cP",
        "Coefficient A": "-.003189",
        "Coefficient B": "4.145E-05",
        "Coefficient C": "-8.272E-10",
        "Coefficient D": "0",
        "Coefficient E": NaN,
        "Coefficient F": NaN,
        "Coefficient G": NaN,
        "T range, from": "273.15 K",
        "T range, to": "1273.15 K"
    },
    "Viscosity (Liquid)": {
        "Equation Name": "Quasipolynomial Equation",
        "Equation": "ln (VISL) = A + B/T + C*T + D*T^2  where T in K and VISL in cP.",
        "Coefficient A": "-24.71",
        "Coefficient B": "4209",
        "Coefficient C": ".04527",
        "Coefficient D": "-3.376E-05",
        "Coefficient E": NaN,
        "Coefficient F": NaN,
        "Coefficient G": NaN,
        "T range, from": "273.15 K",
        "T range, to": "643.15 K"
    },
    "Themal Conductivity (Gas, Low P)": {
        "Equation Name": "Polynomial Equation",
        "Equation": "THG = A + B*T + C*T^2 + D*T^3  where T in K and THG in W/m.K",
        "Coefficient A": ".007341",
        "Coefficient B": "-1.013E-05",
        "Coefficient C": "1.801E-07",
        "Coefficient D": "-9.100001E-11",
        "Coefficient E": NaN,
        "Coefficient F": NaN,
        "Coefficient G": NaN,
        "T range, from": "273 K",
        "T range, to": "1070 K"
    },
    "Themal Conductivity (Liquid)": {
        "Equation Name": "Polynomial Equation",
        "Equation": "THL = A + B*T + C*T^2 + D*T^3  where T in K and THL in W/m.K",
        "Coefficient A": "-.3838",
        "Coefficient B": ".005254",
        "Coefficient C": "-6.369E-06",
        "Coefficient D": "0",
        "Coefficient E": NaN,
        "Coefficient F": NaN,
        "Coefficient G": NaN,
        "T range, from": "273 K",
        "T range, to": "623 K"
    },
    "Surface Tension": NaN,
    "Partial Molar Volume (VOLP)": "1.807000E-02 m^3/kg-mol",
    "Solubility Parameters (SOLP)": "1.243653E+04 (J/cm^3)^0.5",
    "SRK accentric factor (WSRK)": "-6.544500E-01",
    "COSTALD Characteristic Volume (VSTAR)": "4.357000E-02 m^3/kg-mol",
    "Rackett parameter (ZRA)": "2.372000E-01",
    "Aniline Point (ANP)": NaN,
    "H(formation,ideal gas)at 25 C": "-2.420000E+05 kJ/kg-mol",
    "G(formation,ideal gas) at 25 C": "-2.288000E+05 kJ/kg-mol",
    "Heat of Combustion, Gross form (HCB1)": NaN,
    "Heat of Combustion, Net form (HCB2)": NaN,
    "Van der Waals Volume (VDWV)": NaN,
    "Van der Waals Area (VDWA)": NaN,
    "UNIQUAC Ri Parameter (RI)": "9.200000E-01",
    "UNIQUAC Qi Parameter (QI)": "1.400000E+00",
    "Dipole Moment (DM)": "1.800000E+00 debye",
    "Radius of Gyration (GYRAD)": "6.150000E-01",
    "Liquid Density (DENL)": "5.539767E-02 g-mol/cm^3",
    "Temperature of DENL (TDENL)": "2.930000E+02 K",
    "Heat of Vaporizaiton (HVAP)": NaN,
    "Temperature of HVAP (THVAP)": NaN,
    "Surface Tension (SRF)": NaN,
    "Temperature of SRF (TSRF)": NaN,
    "Dielectric Constant (DIEL)": NaN,
    "Temperature of DIEL (TDIEL)": NaN,
    "Refractive Index (RFI)": NaN,
    "Temperature of RFI (TRFI)": NaN,
    "Lower Flammability Limit(FLL)": NaN,
    "Upper Flammability Limit(FLU)": NaN,
    "Flash Point (Open Cup Method)": NaN,
    "Flash Point (Closed Cup Method)": NaN,
    "Autoignition Temperature (AIGT)": NaN,
    "NFPA Rating (Health)": NaN,
    "NFPA Rating (Fire)": NaN,
    "NFPA Rating (Safety)": NaN,
    "Class": "Inorganics",
    "Subclass": "Inorganics",
    "SMILES": "O"
}