{
    "ID": "1917",
    "Name": "HYDROGEN SULFIDE",
    "Synonyms": "DIHYDROGEN MONOSULFIDE, HYDROSULFURIC ACID, SULFUR HYDRIDE",
    "CAS No.": "7783-06-4",
    "Formula": "H2S",
    "Molecular Wt. (WT)": "3.40758E+01",
    "Normal Boiling Point Temp. (TB)": "2.13600E+02 K",
    "Freezing Point Temp. (TF)": "1.87600E+02 K",
    "Triple Point Temp. (TT)": "1.87670E+02 K",
    "Triple Point Press. (PT)": "2.31800E+01 kPa",
    "Critical Temperature. (TC)": "3.73200E+02 K",
    "Critical Pressure (PC)": "8.94000E+03 kPa",
    "Critical Volume (VC)": "9.90000E-02 m^3/kg-mol",
    "Critical Compressibility (ZC)": "2.85229E-01",
    "Accentric Factor (ACCF)": "8.10000E-02",
    "Vapor Pressure": {
        "Equation Name": "KDB Correlation Equation",
        "Equation": "ln(Pvp) = A*ln(T) + B/T + C + D*T^2 where Pvp in kPa, T in K",
        "Coefficient A": "-1.687047E+01",
        "Coefficient B": "-5.112309E+03",
        "Coefficient C": "1.172438E+02",
        "Coefficient D": "4.089542E-05",
        "Coefficient E": NaN,
        "Coefficient F": NaN,
        "Coefficient G": NaN,
        "T range, from": "139.15 K",
        "T range, to": "340.15 K"
    },
    "Heat Capacity (Ideal Gas)": {
        "Equation Name": "Polynomial Equation",
        "Equation": "Cp = A + B*T + C*T^2 + D*T^3 + E*T^4  where Cp in kJ/kg-mol , T in K",
        "Coefficient A": "3.387587E+01",
        "Coefficient B": "-1.193297E-02",
        "Coefficient C": "5.382129E-05",
        "Coefficient D": "-3.770331E-08",
        "Coefficient E": "8.599611E-12",
        "Coefficient F": NaN,
        "Coefficient G": NaN,
        "T range, from": NaN,
        "T range, to": NaN
    },
    "Heat Capacity (Liquid)": NaN,
    "Viscosity (Gas, Low P)": NaN,
    "Viscosity (Liquid)": NaN,
    "Themal Conductivity (Gas, Low P)": NaN,
    "Themal Conductivity (Liquid)": NaN,
    "Surface Tension": NaN,
    "Partial Molar Volume (VOLP)": NaN,
    "Solubility Parameters (SOLP)": "1.800025E+04 (J/cm^3)^0.5",
    "SRK accentric factor (WSRK)": "1.039000E-01",
    "COSTALD Characteristic Volume (VSTAR)": "9.940000E-02 m^3/kg-mol",
    "Rackett parameter (ZRA)": "2.814000E-01",
    "Aniline Point (ANP)": NaN,
    "H(formation,ideal gas)at 25 C": "2.018000E+04 kJ/kg-mol",
    "G(formation,ideal gas) at 25 C": "-3.308000E+04 kJ/kg-mol",
    "Heat of Combustion, Gross form (HCB1)": NaN,
    "Heat of Combustion, Net form (HCB2)": NaN,
    "Van der Waals Volume (VDWV)": NaN,
    "Van der Waals Area (VDWA)": NaN,
    "UNIQUAC Ri Parameter (RI)": "1.000000E+00",
    "UNIQUAC Qi Parameter (QI)": "1.000000E+00",
    "Dipole Moment (DM)": "9.000000E-01 debye",
    "Radius of Gyration (GYRAD)": "6.040000E-01",
    "Liquid Density (DENL)": "2.658778E-02 g-mol/cm^3",
    "Temperature of DENL (TDENL)": "2.220000E+02 K",
    "Heat of Vaporizaiton (HVAP)": NaN,
    "Temperature of HVAP (THVAP)": NaN,
    "Surface Tension (SRF)": NaN,
    "Temperature of SRF (TSRF)": NaN,
    "Dielectric Constant (DIEL)": NaN,
    "Temperature of DIEL (TDIEL)": NaN,
    "Refractive Index (RFI)": NaN,
    "Temperature of RFI (TRFI)": NaN,
    "Lower Flammability Limit(FLL)": NaN,
    "Upper Flammability Limit(FLU)": NaN,
    "Flash Point (Open Cup Method)": NaN,
    "Flash Point (Closed Cup Method)": NaN,
    "Autoignition Temperature (AIGT)": NaN,
    "NFPA Rating (Health)": 3.0,
    "NFPA Rating (Fire)": 4.0,
    "NFPA Rating (Safety)": NaN,
    "Class": "Inorganics",
    "Subclass": "Inorganics",
    "SMILES": "S"
}