{
    "ID": "1918",
    "Name": "AMMONIA",
    "Synonyms": "AMMONIA GAS, NITRO-SIL",
    "CAS No.": "7664-41-7",
    "Formula": "H3N",
    "Molecular Wt. (WT)": "1.70304E+01",
    "Normal Boiling Point Temp. (TB)": "2.39820E+02 K",
    "Freezing Point Temp. (TF)": "1.95410E+02 K",
    "Triple Point Temp. (TT)": "1.95410E+02 K",
    "Triple Point Press. (PT)": "6.07700E+00 kPa",
    "Critical Temperature. (TC)": "4.05500E+02 K",
    "Critical Pressure (PC)": "1.13500E+04 kPa",
    "Critical Volume (VC)": "7.20000E-02 m^3/kg-mol",
    "Critical Compressibility (ZC)": "2.42382E-01",
    "Accentric Factor (ACCF)": "2.50000E-01",
    "Vapor Pressure": {
        "Equation Name": "KDB Correlation Equation",
        "Equation": "ln(Pvp) = A*ln(T) + B/T + C + D*T^2 where Pvp in kPa, T in K",
        "Coefficient A": "-7.982142E+00",
        "Coefficient B": "-4.419156E+03",
        "Coefficient C": "6.601227E+01",
        "Coefficient D": "1.354822E-05",
        "Coefficient E": NaN,
        "Coefficient F": NaN,
        "Coefficient G": NaN,
        "T range, from": "190.15 K",
        "T range, to": "333.15 K"
    },
    "Heat Capacity (Ideal Gas)": {
        "Equation Name": "Polynomial Equation",
        "Equation": "Cp = A + B*T + C*T^2 + D*T^3 + E*T^4  where Cp in kJ/kg-mol , T in K",
        "Coefficient A": "3.423600E+01",
        "Coefficient B": "-2.214127E-02",
        "Coefficient C": "1.212511E-04",
        "Coefficient D": "-1.088291E-07",
        "Coefficient E": "3.203149E-11",
        "Coefficient F": NaN,
        "Coefficient G": NaN,
        "T range, from": NaN,
        "T range, to": NaN
    },
    "Heat Capacity (Liquid)": {
        "Equation Name": "Polynomial Equation",
        "Equation": "Cp = A + B*T + C*T^2 + D*T^3  where T in K and Cp in kJ/kg-mol.K",
        "Coefficient A": "-137.0237",
        "Coefficient B": "2.216037",
        "Coefficient C": "-.0079022",
        "Coefficient D": "9.804715E-06",
        "Coefficient E": NaN,
        "Coefficient F": NaN,
        "Coefficient G": NaN,
        "T range, from": "195.75 K",
        "T range, to": "373.15 K"
    },
    "Viscosity (Gas, Low P)": {
        "Equation Name": "Polynomial Equation",
        "Equation": "VISG = A + B*T + C*T^2 where T in K and VISG in cP",
        "Coefficient A": "-.0009372",
        "Coefficient B": "3.899E-05",
        "Coefficient C": "-4.405E-09",
        "Coefficient D": "0",
        "Coefficient E": NaN,
        "Coefficient F": NaN,
        "Coefficient G": NaN,
        "T range, from": "73.14999 K",
        "T range, to": "1473.15 K"
    },
    "Viscosity (Liquid)": {
        "Equation Name": "Quasipolynomial Equation",
        "Equation": "ln (VISL) = A + B/T + C*T + D*T^2  where T in K and VISL in cP.",
        "Coefficient A": "-19.78",
        "Coefficient B": "2018",
        "Coefficient C": ".06173",
        "Coefficient D": "-8.317E-05",
        "Coefficient E": NaN,
        "Coefficient F": NaN,
        "Coefficient G": NaN,
        "T range, from": "198.15 K",
        "T range, to": "403.15 K"
    },
    "Themal Conductivity (Gas, Low P)": {
        "Equation Name": "Polynomial Equation",
        "Equation": "THG = A + B*T + C*T^2 + D*T^3  where T in K and THG in W/m.K",
        "Coefficient A": ".0003811",
        "Coefficient B": "5.389E-05",
        "Coefficient C": "1.227E-07",
        "Coefficient D": "-3.635E-11",
        "Coefficient E": NaN,
        "Coefficient F": NaN,
        "Coefficient G": NaN,
        "T range, from": "273 K",
        "T range, to": "1670 K"
    },
    "Themal Conductivity (Liquid)": {
        "Equation Name": "Polynomial Equation",
        "Equation": "THL = A + B*T + C*T^2 + D*T^3  where T in K and THL in W/m.K",
        "Coefficient A": "1.068",
        "Coefficient B": "-.001577",
        "Coefficient C": "-1.229E-06",
        "Coefficient D": "0",
        "Coefficient E": NaN,
        "Coefficient F": NaN,
        "Coefficient G": NaN,
        "T range, from": "196 K",
        "T range, to": "373 K"
    },
    "Surface Tension": NaN,
    "Partial Molar Volume (VOLP)": NaN,
    "Solubility Parameters (SOLP)": "2.489966E+04 (J/cm^3)^0.5",
    "SRK accentric factor (WSRK)": "2.620000E-01",
    "COSTALD Characteristic Volume (VSTAR)": "7.010000E-02 m^3/kg-mol",
    "Rackett parameter (ZRA)": "2.465000E-01",
    "Aniline Point (ANP)": NaN,
    "H(formation,ideal gas)at 25 C": "-4.572000E+04 kJ/kg-mol",
    "G(formation,ideal gas) at 25 C": "-1.616000E+04 kJ/kg-mol",
    "Heat of Combustion, Gross form (HCB1)": NaN,
    "Heat of Combustion, Net form (HCB2)": NaN,
    "Van der Waals Volume (VDWV)": NaN,
    "Van der Waals Area (VDWA)": NaN,
    "UNIQUAC Ri Parameter (RI)": "1.000000E+00",
    "UNIQUAC Qi Parameter (QI)": "1.000000E+00",
    "Dipole Moment (DM)": "1.500000E+00 debye",
    "Radius of Gyration (GYRAD)": "8.530000E-01",
    "Liquid Density (DENL)": "3.752114E-02 g-mol/cm^3",
    "Temperature of DENL (TDENL)": "2.730000E+02 K",
    "Heat of Vaporizaiton (HVAP)": NaN,
    "Temperature of HVAP (THVAP)": NaN,
    "Surface Tension (SRF)": NaN,
    "Temperature of SRF (TSRF)": NaN,
    "Dielectric Constant (DIEL)": NaN,
    "Temperature of DIEL (TDIEL)": NaN,
    "Refractive Index (RFI)": NaN,
    "Temperature of RFI (TRFI)": NaN,
    "Lower Flammability Limit(FLL)": "1.550000E+01 % in Air",
    "Upper Flammability Limit(FLU)": "2.700000E+01 % in Air",
    "Flash Point (Open Cup Method)": NaN,
    "Flash Point (Closed Cup Method)": NaN,
    "Autoignition Temperature (AIGT)": "9.242612E+02 K",
    "NFPA Rating (Health)": "3",
    "NFPA Rating (Fire)": "1",
    "NFPA Rating (Safety)": NaN,
    "Class": "Inorganics",
    "Subclass": "Inorganics",
    "SMILES": "N"
}