{
    "ID": "192",
    "Name": "TRANS-2-PENTENE",
    "Synonyms": "(E)-2-PENTENE, 2-TRANS-PENTENE",
    "CAS No.": "646-04-8",
    "Formula": "C5H10",
    "Molecular Wt. (WT)": "7.01340E+01",
    "Normal Boiling Point Temp. (TB)": "3.09490E+02 K",
    "Freezing Point Temp. (TF)": "1.32900E+02 K",
    "Triple Point Temp. (TT)": NaN,
    "Triple Point Press. (PT)": NaN,
    "Critical Temperature. (TC)": "4.71000E+02 K",
    "Critical Pressure (PC)": "3.52000E+03 kPa",
    "Critical Volume (VC)": NaN,
    "Critical Compressibility (ZC)": NaN,
    "Accentric Factor (ACCF)": "2.59000E-01",
    "Vapor Pressure": {
        "Equation Name": "KDB Correlation Equation",
        "Equation": "ln(Pvp) = A*ln(T) + B/T + C + D*T^2 where Pvp in kPa, T in K",
        "Coefficient A": "-7.955445E+00",
        "Coefficient B": "-5.306539E+03",
        "Coefficient C": "6.666475E+01",
        "Coefficient D": "7.748207E-06",
        "Coefficient E": NaN,
        "Coefficient F": NaN,
        "Coefficient G": NaN,
        "T range, from": "132.89 K",
        "T range, to": "475.37 K"
    },
    "Heat Capacity (Ideal Gas)": {
        "Equation Name": "Polynomial Equation",
        "Equation": "Cp = A + B*T + C*T^2 + D*T^3 + E*T^4  where Cp in kJ/kg-mol , T in K",
        "Coefficient A": "-2.017257E+00",
        "Coefficient B": "4.450826E-01",
        "Coefficient C": "-2.592388E-04",
        "Coefficient D": "6.875893E-08",
        "Coefficient E": "-4.868712E-12",
        "Coefficient F": NaN,
        "Coefficient G": NaN,
        "T range, from": NaN,
        "T range, to": NaN
    },
    "Heat Capacity (Liquid)": NaN,
    "Viscosity (Gas, Low P)": NaN,
    "Viscosity (Liquid)": NaN,
    "Themal Conductivity (Gas, Low P)": NaN,
    "Themal Conductivity (Liquid)": NaN,
    "Surface Tension": NaN,
    "Partial Molar Volume (VOLP)": NaN,
    "Solubility Parameters (SOLP)": "1.444111E+04 (J/cm^3)^0.5",
    "SRK accentric factor (WSRK)": "2.399000E-01",
    "COSTALD Characteristic Volume (VSTAR)": "2.929000E-01 m^3/kg-mol",
    "Rackett parameter (ZRA)": "2.704000E-01",
    "Aniline Point (ANP)": "2.914500E+02 K",
    "H(formation,ideal gas)at 25 C": "-3.178000E+04 kJ/kg-mol",
    "G(formation,ideal gas) at 25 C": "6.996000E+04 kJ/kg-mol",
    "Heat of Combustion, Gross form (HCB1)": "3.338037E+06 kJ/kg-mol",
    "Heat of Combustion, Net form (HCB2)": "3.118000E+06 kJ/kg-mol",
    "Van der Waals Volume (VDWV)": NaN,
    "Van der Waals Area (VDWA)": NaN,
    "UNIQUAC Ri Parameter (RI)": NaN,
    "UNIQUAC Qi Parameter (QI)": NaN,
    "Dipole Moment (DM)": NaN,
    "Radius of Gyration (GYRAD)": NaN,
    "Liquid Density (DENL)": "9.253714E-03 g-mol/cm^3",
    "Temperature of DENL (TDENL)": "2.930000E+02 K",
    "Heat of Vaporizaiton (HVAP)": "2.606600E+04 kJ/kg-mol",
    "Temperature of HVAP (THVAP)": "3.095000E+02 K",
    "Surface Tension (SRF)": "1.641000E+01 dyn/cm",
    "Temperature of SRF (TSRF)": "2.982000E+02 K",
    "Dielectric Constant (DIEL)": NaN,
    "Temperature of DIEL (TDIEL)": NaN,
    "Refractive Index (RFI)": "1.376100E+00",
    "Temperature of RFI (TRFI)": "2.981500E+02 K",
    "Lower Flammability Limit(FLL)": NaN,
    "Upper Flammability Limit(FLU)": NaN,
    "Flash Point (Open Cup Method)": NaN,
    "Flash Point (Closed Cup Method)": NaN,
    "Autoignition Temperature (AIGT)": NaN,
    "NFPA Rating (Health)": NaN,
    "NFPA Rating (Fire)": NaN,
    "NFPA Rating (Safety)": NaN,
    "Class": "Unsaturated Hydrocarbons",
    "Subclass": "Alkenes",
    "SMILES": "CC/C=C/C"
}