{
    "ID": "1925",
    "Name": "HELIUM-4",
    "Synonyms": "HELIUM, O-HELIUM",
    "CAS No.": "7440-59-7",
    "Formula": "He",
    "Molecular Wt. (WT)": "4.00260E+00",
    "Normal Boiling Point Temp. (TB)": "4.22000E+00 K",
    "Freezing Point Temp. (TF)": NaN,
    "Triple Point Temp. (TT)": NaN,
    "Triple Point Press. (PT)": NaN,
    "Critical Temperature. (TC)": "5.19000E+00 K",
    "Critical Pressure (PC)": "2.27000E+02 kPa",
    "Critical Volume (VC)": "5.70000E-02 m^3/kg-mol",
    "Critical Compressibility (ZC)": "2.99845E-01",
    "Accentric Factor (ACCF)": "-3.65000E-01",
    "Vapor Pressure": {
        "Equation Name": "KDB Correlation Equation",
        "Equation": "ln(Pvp) = A*ln(T) + B/T + C + D*T^2 where Pvp in kPa, T in K",
        "Coefficient A": "2.188958E+00",
        "Coefficient B": "-6.517245E+00",
        "Coefficient C": "2.898930E+00",
        "Coefficient D": "6.536508E-03",
        "Coefficient E": NaN,
        "Coefficient F": NaN,
        "Coefficient G": NaN,
        "T range, from": "2.00 K",
        "T range, to": "5.00 K"
    },
    "Heat Capacity (Ideal Gas)": {
        "Equation Name": "Polynomial Equation",
        "Equation": "Cp = A + B*T + C*T^2 + D*T^3 + E*T^4  where Cp in kJ/kg-mol , T in K",
        "Coefficient A": "2.080000E+01",
        "Coefficient B": "0.000000E+00",
        "Coefficient C": "0.000000E+00",
        "Coefficient D": "0",
        "Coefficient E": "0",
        "Coefficient F": NaN,
        "Coefficient G": NaN,
        "T range, from": NaN,
        "T range, to": NaN
    },
    "Heat Capacity (Liquid)": {
        "Equation Name": "Polynomial Equation",
        "Equation": "Cp = A + B*T + C*T^2 + D*T^3  where T in K and Cp in kJ/kg-mol.K",
        "Coefficient A": "-29.02234",
        "Coefficient B": "23.21118",
        "Coefficient C": "-4.909063",
        "Coefficient D": ".4568549",
        "Coefficient E": NaN,
        "Coefficient F": NaN,
        "Coefficient G": NaN,
        "T range, from": "3.149994 K",
        "T range, to": "541.65 K"
    },
    "Viscosity (Gas, Low P)": {
        "Equation Name": "Polynomial Equation",
        "Equation": "VISG = A + B*T + C*T^2 where T in K and VISG in cP",
        "Coefficient A": ".005416",
        "Coefficient B": "5.014E-05",
        "Coefficient C": "-8.947E-09",
        "Coefficient D": "0",
        "Coefficient E": NaN,
        "Coefficient F": NaN,
        "Coefficient G": NaN,
        "T range, from": "113.15 K",
        "T range, to": "1473.15 K"
    },
    "Viscosity (Liquid)": NaN,
    "Themal Conductivity (Gas, Low P)": {
        "Equation Name": "Polynomial Equation",
        "Equation": "THG = A + B*T + C*T^2 + D*T^3  where T in K and THG in W/m.K",
        "Coefficient A": ".03722",
        "Coefficient B": ".0003896",
        "Coefficient C": "-7.45E-08",
        "Coefficient D": "1.29E-11",
        "Coefficient E": NaN,
        "Coefficient F": NaN,
        "Coefficient G": NaN,
        "T range, from": "115 K",
        "T range, to": "1070 K"
    },
    "Themal Conductivity (Liquid)": {
        "Equation Name": "Polynomial Equation",
        "Equation": "THL = A + B*T + C*T^2 + D*T^3  where T in K and THL in W/m.K",
        "Coefficient A": ".04118",
        "Coefficient B": "-.01833",
        "Coefficient C": ".003789",
        "Coefficient D": "0",
        "Coefficient E": NaN,
        "Coefficient F": NaN,
        "Coefficient G": NaN,
        "T range, from": "2.2 K",
        "T range, to": "4.9 K"
    },
    "Surface Tension": NaN,
    "Partial Molar Volume (VOLP)": NaN,
    "Solubility Parameters (SOLP)": "5.277345E+03 (J/cm^3)^0.5",
    "SRK accentric factor (WSRK)": "-4.766000E-01",
    "COSTALD Characteristic Volume (VSTAR)": "5.460000E-02 m^3/kg-mol",
    "Rackett parameter (ZRA)": "2.981000E-01",
    "Aniline Point (ANP)": NaN,
    "H(formation,ideal gas)at 25 C": NaN,
    "G(formation,ideal gas) at 25 C": NaN,
    "Heat of Combustion, Gross form (HCB1)": NaN,
    "Heat of Combustion, Net form (HCB2)": NaN,
    "Van der Waals Volume (VDWV)": NaN,
    "Van der Waals Area (VDWA)": NaN,
    "UNIQUAC Ri Parameter (RI)": NaN,
    "UNIQUAC Qi Parameter (QI)": NaN,
    "Dipole Moment (DM)": "0.000000E+00 debye",
    "Radius of Gyration (GYRAD)": NaN,
    "Liquid Density (DENL)": "3.073002E-02 g-mol/cm^3",
    "Temperature of DENL (TDENL)": "4.300000E+00 K",
    "Heat of Vaporizaiton (HVAP)": NaN,
    "Temperature of HVAP (THVAP)": NaN,
    "Surface Tension (SRF)": NaN,
    "Temperature of SRF (TSRF)": NaN,
    "Dielectric Constant (DIEL)": NaN,
    "Temperature of DIEL (TDIEL)": NaN,
    "Refractive Index (RFI)": NaN,
    "Temperature of RFI (TRFI)": NaN,
    "Lower Flammability Limit(FLL)": NaN,
    "Upper Flammability Limit(FLU)": NaN,
    "Flash Point (Open Cup Method)": NaN,
    "Flash Point (Closed Cup Method)": NaN,
    "Autoignition Temperature (AIGT)": NaN,
    "NFPA Rating (Health)": NaN,
    "NFPA Rating (Fire)": NaN,
    "NFPA Rating (Safety)": NaN,
    "Class": "Inorganics",
    "Subclass": "Inorganics",
    "SMILES": "[He]"
}