{
    "ID": "1928",
    "Name": "NITRIC OXIDE",
    "Synonyms": "NITROGEN OXIDE",
    "CAS No.": "10102-43-9",
    "Formula": "NO",
    "Molecular Wt. (WT)": "3.00061E+01",
    "Normal Boiling Point Temp. (TB)": "1.21410E+02 K",
    "Freezing Point Temp. (TF)": "1.09500E+02 K",
    "Triple Point Temp. (TT)": "1.09540E+02 K",
    "Triple Point Press. (PT)": "2.19160E+01 kPa",
    "Critical Temperature. (TC)": "1.80000E+02 K",
    "Critical Pressure (PC)": "6.48000E+03 kPa",
    "Critical Volume (VC)": "5.80000E-02 m^3/kg-mol",
    "Critical Compressibility (ZC)": "2.51127E-01",
    "Accentric Factor (ACCF)": "5.88000E-01",
    "Vapor Pressure": {
        "Equation Name": "KDB Correlation Equation",
        "Equation": "ln(Pvp) = A*ln(T) + B/T + C + D*T^2 where Pvp in kPa, T in K",
        "Coefficient A": "-2.730484E+00",
        "Coefficient B": "-1.976318E+03",
        "Coefficient C": "3.374866E+01",
        "Coefficient D": "1.732308E-05",
        "Coefficient E": NaN,
        "Coefficient F": NaN,
        "Coefficient G": NaN,
        "T range, from": "95.15 K",
        "T range, to": "140.15 K"
    },
    "Heat Capacity (Ideal Gas)": {
        "Equation Name": "Polynomial Equation",
        "Equation": "Cp = A + B*T + C*T^2 + D*T^3 + E*T^4  where Cp in kJ/kg-mol , T in K",
        "Coefficient A": "3.415213E+01",
        "Coefficient B": "-3.098793E-02",
        "Coefficient C": "7.082141E-05",
        "Coefficient D": "-5.413454E-08",
        "Coefficient E": "1.418476E-11",
        "Coefficient F": NaN,
        "Coefficient G": NaN,
        "T range, from": NaN,
        "T range, to": NaN
    },
    "Heat Capacity (Liquid)": {
        "Equation Name": "Polynomial Equation",
        "Equation": "Cp = A + B*T + C*T^2 + D*T^3  where T in K and Cp in kJ/kg-mol.K",
        "Coefficient A": "-2392.897",
        "Coefficient B": "65.73563",
        "Coefficient C": "-.5906289",
        "Coefficient D": "1.784881E-03",
        "Coefficient E": NaN,
        "Coefficient F": NaN,
        "Coefficient G": NaN,
        "T range, from": "109.35 K",
        "T range, to": "138.15 K"
    },
    "Viscosity (Gas, Low P)": {
        "Equation Name": "Polynomial Equation",
        "Equation": "VISG = A + B*T + C*T^2 where T in K and VISG in cP",
        "Coefficient A": ".005677",
        "Coefficient B": "4.814E-05",
        "Coefficient C": "-8.433999E-09",
        "Coefficient D": "0",
        "Coefficient E": NaN,
        "Coefficient F": NaN,
        "Coefficient G": NaN,
        "T range, from": "123.15 K",
        "T range, to": "1673.15 K"
    },
    "Viscosity (Liquid)": {
        "Equation Name": "Quasipolynomial Equation",
        "Equation": "ln (VISL) = A + B/T + C*T + D*T^2  where T in K and VISL in cP.",
        "Coefficient A": "-11.5",
        "Coefficient B": "548.7",
        "Coefficient C": ".08448",
        "Coefficient D": "-.0003092",
        "Coefficient E": NaN,
        "Coefficient F": NaN,
        "Coefficient G": NaN,
        "T range, from": "113.15 K",
        "T range, to": "183.15 K"
    },
    "Themal Conductivity (Gas, Low P)": {
        "Equation Name": "Polynomial Equation",
        "Equation": "THG = A + B*T + C*T^2 + D*T^3  where T in K and THG in W/m.K",
        "Coefficient A": ".005021",
        "Coefficient B": "7.194E-05",
        "Coefficient C": "-8.38E-10",
        "Coefficient D": "-3.559E-12",
        "Coefficient E": NaN,
        "Coefficient F": NaN,
        "Coefficient G": NaN,
        "T range, from": "85 K",
        "T range, to": "1670 K"
    },
    "Themal Conductivity (Liquid)": {
        "Equation Name": "Polynomial Equation",
        "Equation": "THL = A + B*T + C*T^2 + D*T^3  where T in K and THL in W/m.K",
        "Coefficient A": ".1773",
        "Coefficient B": ".00106",
        "Coefficient C": "-8.891E-06",
        "Coefficient D": "0",
        "Coefficient E": NaN,
        "Coefficient F": NaN,
        "Coefficient G": NaN,
        "T range, from": "110 K",
        "T range, to": "177 K"
    },
    "Surface Tension": NaN,
    "Partial Molar Volume (VOLP)": NaN,
    "Solubility Parameters (SOLP)": NaN,
    "SRK accentric factor (WSRK)": "5.896000E-01",
    "COSTALD Characteristic Volume (VSTAR)": "6.650000E-02 m^3/kg-mol",
    "Rackett parameter (ZRA)": "2.668000E-01",
    "Aniline Point (ANP)": NaN,
    "H(formation,ideal gas)at 25 C": "9.043000E+04 kJ/kg-mol",
    "G(formation,ideal gas) at 25 C": "8.675000E+04 kJ/kg-mol",
    "Heat of Combustion, Gross form (HCB1)": NaN,
    "Heat of Combustion, Net form (HCB2)": NaN,
    "Van der Waals Volume (VDWV)": NaN,
    "Van der Waals Area (VDWA)": NaN,
    "UNIQUAC Ri Parameter (RI)": NaN,
    "UNIQUAC Qi Parameter (QI)": NaN,
    "Dipole Moment (DM)": "2.000000E-01 debye",
    "Radius of Gyration (GYRAD)": NaN,
    "Liquid Density (DENL)": "4.265799E-02 g-mol/cm^3",
    "Temperature of DENL (TDENL)": "1.210000E+02 K",
    "Heat of Vaporizaiton (HVAP)": NaN,
    "Temperature of HVAP (THVAP)": NaN,
    "Surface Tension (SRF)": NaN,
    "Temperature of SRF (TSRF)": NaN,
    "Dielectric Constant (DIEL)": NaN,
    "Temperature of DIEL (TDIEL)": NaN,
    "Refractive Index (RFI)": NaN,
    "Temperature of RFI (TRFI)": NaN,
    "Lower Flammability Limit(FLL)": NaN,
    "Upper Flammability Limit(FLU)": NaN,
    "Flash Point (Open Cup Method)": NaN,
    "Flash Point (Closed Cup Method)": NaN,
    "Autoignition Temperature (AIGT)": NaN,
    "NFPA Rating (Health)": NaN,
    "NFPA Rating (Fire)": NaN,
    "NFPA Rating (Safety)": NaN,
    "Class": "Inorganics",
    "Subclass": "Inorganics",
    "SMILES": "[N]=O"
}