{
    "ID": "1929",
    "Name": "NITROGEN DIOXIDE",
    "Synonyms": "NITROGEN PEROXIDE, AZOTE",
    "CAS No.": "10102-44-0",
    "Formula": "NO2",
    "Molecular Wt. (WT)": "4.60055E+01",
    "Normal Boiling Point Temp. (TB)": "2.94300E+02 K",
    "Freezing Point Temp. (TF)": "2.61900E+02 K",
    "Triple Point Temp. (TT)": NaN,
    "Triple Point Press. (PT)": NaN,
    "Critical Temperature. (TC)": "4.31000E+02 K",
    "Critical Pressure (PC)": "1.01000E+04 kPa",
    "Critical Volume (VC)": "1.67800E-01 m^3/kg-mol",
    "Critical Compressibility (ZC)": "4.72933E-01",
    "Accentric Factor (ACCF)": "8.34000E-01",
    "Vapor Pressure": {
        "Equation Name": "KDB Correlation Equation",
        "Equation": "ln(Pvp) = A*ln(T) + B/T + C + D*T^2 where Pvp in kPa, T in K",
        "Coefficient A": "7.520236E+00",
        "Coefficient B": "-2.004203E+03",
        "Coefficient C": "-3.093542E+01",
        "Coefficient D": "-4.470187E-06",
        "Coefficient E": NaN,
        "Coefficient F": NaN,
        "Coefficient G": NaN,
        "T range, from": "277.15 K",
        "T range, to": "421.15 K"
    },
    "Heat Capacity (Ideal Gas)": {
        "Equation Name": "Polynomial Equation",
        "Equation": "Cp = A + B*T + C*T^2 + D*T^3 + E*T^4  where Cp in kJ/kg-mol , T in K",
        "Coefficient A": "2.815039E+01",
        "Coefficient B": "2.610884E-02",
        "Coefficient C": "3.315101E-05",
        "Coefficient D": "-4.882618E-08",
        "Coefficient E": "1.64162E-11",
        "Coefficient F": NaN,
        "Coefficient G": NaN,
        "T range, from": NaN,
        "T range, to": NaN
    },
    "Heat Capacity (Liquid)": {
        "Equation Name": "Polynomial Equation",
        "Equation": "Cp = A + B*T + C*T^2 + D*T^3  where T in K and Cp in kJ/kg-mol.K",
        "Coefficient A": "-312.7914",
        "Coefficient B": "3.655328",
        "Coefficient C": "-.0118803",
        "Coefficient D": "1.323733E-05",
        "Coefficient E": NaN,
        "Coefficient F": NaN,
        "Coefficient G": NaN,
        "T range, from": "261.95 K",
        "T range, to": "413.15 K"
    },
    "Viscosity (Gas, Low P)": NaN,
    "Viscosity (Liquid)": {
        "Equation Name": "Quasipolynomial Equation",
        "Equation": "ln (VISL) = A + B/T + C*T + D*T^2  where T in K and VISL in cP.",
        "Coefficient A": "-19.41",
        "Coefficient B": "2147",
        "Coefficient C": ".06353",
        "Coefficient D": "-8.663999E-05",
        "Coefficient E": NaN,
        "Coefficient F": NaN,
        "Coefficient G": NaN,
        "T range, from": "262.15 K",
        "T range, to": "423.15 K"
    },
    "Themal Conductivity (Gas, Low P)": {
        "Equation Name": "Polynomial Equation",
        "Equation": "THG = A + B*T + C*T^2 + D*T^3  where T in K and THG in W/m.K",
        "Coefficient A": "-.01404",
        "Coefficient B": ".0001108",
        "Coefficient C": "-3.162E-08",
        "Coefficient D": "4.485E-12",
        "Coefficient E": NaN,
        "Coefficient F": NaN,
        "Coefficient G": NaN,
        "T range, from": "300 K",
        "T range, to": "1670 K"
    },
    "Themal Conductivity (Liquid)": {
        "Equation Name": "Polynomial Equation",
        "Equation": "THL = A + B*T + C*T^2 + D*T^3  where T in K and THL in W/m.K",
        "Coefficient A": ".2176",
        "Coefficient B": "2.604E-05",
        "Coefficient C": "-1.077E-06",
        "Coefficient D": "0",
        "Coefficient E": NaN,
        "Coefficient F": NaN,
        "Coefficient G": NaN,
        "T range, from": "262 K",
        "T range, to": "415 K"
    },
    "Surface Tension": NaN,
    "Partial Molar Volume (VOLP)": NaN,
    "Solubility Parameters (SOLP)": "2.610650E+04 (J/cm^3)^0.5",
    "SRK accentric factor (WSRK)": "8.634000E-01",
    "COSTALD Characteristic Volume (VSTAR)": "9.120000E-02 m^3/kg-mol",
    "Rackett parameter (ZRA)": "2.413000E-01",
    "Aniline Point (ANP)": NaN,
    "H(formation,ideal gas)at 25 C": "3.387000E+04 kJ/kg-mol",
    "G(formation,ideal gas) at 25 C": "5.200000E+04 kJ/kg-mol",
    "Heat of Combustion, Gross form (HCB1)": NaN,
    "Heat of Combustion, Net form (HCB2)": NaN,
    "Van der Waals Volume (VDWV)": NaN,
    "Van der Waals Area (VDWA)": NaN,
    "UNIQUAC Ri Parameter (RI)": NaN,
    "UNIQUAC Qi Parameter (QI)": NaN,
    "Dipole Moment (DM)": "4.000000E-01 debye",
    "Radius of Gyration (GYRAD)": NaN,
    "Liquid Density (DENL)": "3.151797E-02 g-mol/cm^3",
    "Temperature of DENL (TDENL)": "2.930000E+02 K",
    "Heat of Vaporizaiton (HVAP)": NaN,
    "Temperature of HVAP (THVAP)": NaN,
    "Surface Tension (SRF)": NaN,
    "Temperature of SRF (TSRF)": NaN,
    "Dielectric Constant (DIEL)": NaN,
    "Temperature of DIEL (TDIEL)": NaN,
    "Refractive Index (RFI)": NaN,
    "Temperature of RFI (TRFI)": NaN,
    "Lower Flammability Limit(FLL)": NaN,
    "Upper Flammability Limit(FLU)": NaN,
    "Flash Point (Open Cup Method)": NaN,
    "Flash Point (Closed Cup Method)": NaN,
    "Autoignition Temperature (AIGT)": NaN,
    "NFPA Rating (Health)": NaN,
    "NFPA Rating (Fire)": NaN,
    "NFPA Rating (Safety)": NaN,
    "Class": "Inorganics",
    "Subclass": "Inorganics",
    "SMILES": "N(=O)[O]"
}