{
    "ID": "1930",
    "Name": "NITROGEN",
    "Synonyms": "NITROGEN GAS",
    "CAS No.": "7727-37-9",
    "Formula": "N2",
    "Molecular Wt. (WT)": "2.80134E+01",
    "Normal Boiling Point Temp. (TB)": "7.73600E+01 K",
    "Freezing Point Temp. (TF)": "6.31500E+01 K",
    "Triple Point Temp. (TT)": "6.31500E+01 K",
    "Triple Point Press. (PT)": "1.24630E+01 kPa",
    "Critical Temperature. (TC)": "1.26210E+02 K",
    "Critical Pressure (PC)": "3.39000E+03 kPa",
    "Critical Volume (VC)": "9.00000E-02 m^3/kg-mol",
    "Critical Compressibility (ZC)": "2.90745E-01",
    "Accentric Factor (ACCF)": "3.90000E-02",
    "Vapor Pressure": {
        "Equation Name": "KDB Correlation Equation",
        "Equation": "ln(Pvp) = A*ln(T) + B/T + C + D*T^2 where Pvp in kPa, T in K",
        "Coefficient A": "-4.504804E+00",
        "Coefficient B": "-9.760456E+02",
        "Coefficient C": "3.632287E+01",
        "Coefficient D": "8.363507E-05",
        "Coefficient E": NaN,
        "Coefficient F": NaN,
        "Coefficient G": NaN,
        "T range, from": "54.15 K",
        "T range, to": "125.72 K"
    },
    "Heat Capacity (Ideal Gas)": {
        "Equation Name": "Polynomial Equation",
        "Equation": "Cp = A + B*T + C*T^2 + D*T^3 + E*T^4  where Cp in kJ/kg-mol , T in K",
        "Coefficient A": "2.980182E+01",
        "Coefficient B": "-7.019071E-03",
        "Coefficient C": "1.744440E-05",
        "Coefficient D": "-8.48029E-09",
        "Coefficient E": "9.336869E-13",
        "Coefficient F": NaN,
        "Coefficient G": NaN,
        "T range, from": NaN,
        "T range, to": NaN
    },
    "Heat Capacity (Liquid)": {
        "Equation Name": "Polynomial Equation",
        "Equation": "Cp = A + B*T + C*T^2 + D*T^3  where T in K and Cp in kJ/kg-mol.K",
        "Coefficient A": "-124.7094",
        "Coefficient B": "6.970364",
        "Coefficient C": "-9.009784E-02",
        "Coefficient D": "3.935026E-04",
        "Coefficient E": NaN,
        "Coefficient F": NaN,
        "Coefficient G": NaN,
        "T range, from": "63.25 K",
        "T range, to": "113.15 K"
    },
    "Viscosity (Gas, Low P)": {
        "Equation Name": "Polynomial Equation",
        "Equation": "VISG = A + B*T + C*T^2 where T in K and VISG in cP",
        "Coefficient A": ".003043",
        "Coefficient B": "4.989E-05",
        "Coefficient C": "-1.093E-08",
        "Coefficient D": "0",
        "Coefficient E": NaN,
        "Coefficient F": NaN,
        "Coefficient G": NaN,
        "T range, from": "113.15 K",
        "T range, to": "1473.15 K"
    },
    "Viscosity (Liquid)": {
        "Equation Name": "Quasipolynomial Equation",
        "Equation": "ln (VISL) = A + B/T + C*T + D*T^2  where T in K and VISL in cP.",
        "Coefficient A": "-27.95",
        "Coefficient B": "866",
        "Coefficient C": ".2763",
        "Coefficient D": "-.001084",
        "Coefficient E": NaN,
        "Coefficient F": NaN,
        "Coefficient G": NaN,
        "T range, from": "68.14999 K",
        "T range, to": "78.14999 K"
    },
    "Themal Conductivity (Gas, Low P)": {
        "Equation Name": "Polynomial Equation",
        "Equation": "THG = A + B*T + C*T^2 + D*T^3  where T in K and THG in W/m.K",
        "Coefficient A": ".0003919",
        "Coefficient B": "9.816E-05",
        "Coefficient C": "-5.067E-08",
        "Coefficient D": "1.504E-11",
        "Coefficient E": NaN,
        "Coefficient F": NaN,
        "Coefficient G": NaN,
        "T range, from": "115 K",
        "T range, to": "1470 K"
    },
    "Themal Conductivity (Liquid)": {
        "Equation Name": "Polynomial Equation",
        "Equation": "THL = A + B*T + C*T^2 + D*T^3  where T in K and THL in W/m.K",
        "Coefficient A": ".2629",
        "Coefficient B": "-.001545",
        "Coefficient C": "-9.45E-07",
        "Coefficient D": "0",
        "Coefficient E": NaN,
        "Coefficient F": NaN,
        "Coefficient G": NaN,
        "T range, from": "64 K",
        "T range, to": "121 K"
    },
    "Surface Tension": NaN,
    "Partial Molar Volume (VOLP)": NaN,
    "Solubility Parameters (SOLP)": "9.081943E+03 (J/cm^3)^0.5",
    "SRK accentric factor (WSRK)": "3.580000E-02",
    "COSTALD Characteristic Volume (VSTAR)": "9.010000E-02 m^3/kg-mol",
    "Rackett parameter (ZRA)": "2.900000E-01",
    "Aniline Point (ANP)": NaN,
    "H(formation,ideal gas)at 25 C": NaN,
    "G(formation,ideal gas) at 25 C": NaN,
    "Heat of Combustion, Gross form (HCB1)": NaN,
    "Heat of Combustion, Net form (HCB2)": NaN,
    "Van der Waals Volume (VDWV)": NaN,
    "Van der Waals Area (VDWA)": NaN,
    "UNIQUAC Ri Parameter (RI)": "1.802200E+00",
    "UNIQUAC Qi Parameter (QI)": "1.696000E+00",
    "Dipole Moment (DM)": "0.000000E+00 debye",
    "Radius of Gyration (GYRAD)": "5.470000E-01",
    "Liquid Density (DENL)": "2.870055E-02 g-mol/cm^3",
    "Temperature of DENL (TDENL)": "7.800000E+01 K",
    "Heat of Vaporizaiton (HVAP)": NaN,
    "Temperature of HVAP (THVAP)": NaN,
    "Surface Tension (SRF)": NaN,
    "Temperature of SRF (TSRF)": NaN,
    "Dielectric Constant (DIEL)": NaN,
    "Temperature of DIEL (TDIEL)": NaN,
    "Refractive Index (RFI)": NaN,
    "Temperature of RFI (TRFI)": NaN,
    "Lower Flammability Limit(FLL)": NaN,
    "Upper Flammability Limit(FLU)": NaN,
    "Flash Point (Open Cup Method)": NaN,
    "Flash Point (Closed Cup Method)": NaN,
    "Autoignition Temperature (AIGT)": NaN,
    "NFPA Rating (Health)": NaN,
    "NFPA Rating (Fire)": NaN,
    "NFPA Rating (Safety)": NaN,
    "Class": "Inorganics",
    "Subclass": "Inorganics",
    "SMILES": "N#N"
}