{
    "ID": "1931",
    "Name": "NITROUS OXIDE",
    "Synonyms": "DINITROGEN MONOXIDE, LAUGHING GAS",
    "CAS No.": "10024-97-2",
    "Formula": "N2O",
    "Molecular Wt. (WT)": "4.40128E+01",
    "Normal Boiling Point Temp. (TB)": "1.84670E+02 K",
    "Freezing Point Temp. (TF)": "1.82300E+02 K",
    "Triple Point Temp. (TT)": "1.82320E+02 K",
    "Triple Point Press. (PT)": "8.78520E+01 kPa",
    "Critical Temperature. (TC)": "3.09570E+02 K",
    "Critical Pressure (PC)": "7.25500E+03 kPa",
    "Critical Volume (VC)": "9.70000E-02 m^3/kg-mol",
    "Critical Compressibility (ZC)": "2.73410E-01",
    "Accentric Factor (ACCF)": "1.65000E-01",
    "Vapor Pressure": {
        "Equation Name": "KDB Correlation Equation",
        "Equation": "ln(Pvp) = A*ln(T) + B/T + C + D*T^2 where Pvp in kPa, T in K",
        "Coefficient A": "-1.328557E+00",
        "Coefficient B": "-2.255405E+03",
        "Coefficient C": "2.368721E+01",
        "Coefficient D": "1.077727E-06",
        "Coefficient E": NaN,
        "Coefficient F": NaN,
        "Coefficient G": NaN,
        "T range, from": "182.15 K",
        "T range, to": "309.15 K"
    },
    "Heat Capacity (Ideal Gas)": {
        "Equation Name": "Polynomial Equation",
        "Equation": "Cp = A + B*T + C*T^2 + D*T^3 + E*T^4  where Cp in kJ/kg-mol , T in K",
        "Coefficient A": "5.105957E+01",
        "Coefficient B": "-5.121764E-02",
        "Coefficient C": "1.153740E-04",
        "Coefficient D": "-8.874911E-08",
        "Coefficient E": "2.346661E-11",
        "Coefficient F": NaN,
        "Coefficient G": NaN,
        "T range, from": NaN,
        "T range, to": NaN
    },
    "Heat Capacity (Liquid)": {
        "Equation Name": "Polynomial Equation",
        "Equation": "Cp = A + B*T + C*T^2 + D*T^3  where T in K and Cp in kJ/kg-mol.K",
        "Coefficient A": "-536.7959",
        "Coefficient B": "8.146776",
        "Coefficient C": "-3.636954E-02",
        "Coefficient D": "5.548426E-05",
        "Coefficient E": NaN,
        "Coefficient F": NaN,
        "Coefficient G": NaN,
        "T range, from": "182.35 K",
        "T range, to": "303.15 K"
    },
    "Viscosity (Gas, Low P)": {
        "Equation Name": "Polynomial Equation",
        "Equation": "VISG = A + B*T + C*T^2 where T in K and VISG in cP",
        "Coefficient A": ".003228",
        "Coefficient B": "4.454E-05",
        "Coefficient C": "-7.708E-09",
        "Coefficient D": "0",
        "Coefficient E": NaN,
        "Coefficient F": NaN,
        "Coefficient G": NaN,
        "T range, from": "123.15 K",
        "T range, to": "1673.15 K"
    },
    "Viscosity (Liquid)": {
        "Equation Name": "Quasipolynomial Equation",
        "Equation": "ln (VISL) = A + B/T + C*T + D*T^2  where T in K and VISL in cP.",
        "Coefficient A": "1.09",
        "Coefficient B": "50.2",
        "Coefficient C": "-.01134",
        "Coefficient D": "-9.840999E-06",
        "Coefficient E": NaN,
        "Coefficient F": NaN,
        "Coefficient G": NaN,
        "T range, from": "173.15 K",
        "T range, to": "303.15 K"
    },
    "Themal Conductivity (Gas, Low P)": {
        "Equation Name": "Polynomial Equation",
        "Equation": "THG = A + B*T + C*T^2 + D*T^3  where T in K and THG in W/m.K",
        "Coefficient A": "-.007835",
        "Coefficient B": "8.903E-05",
        "Coefficient C": "-8.97E-09",
        "Coefficient D": "-2.668E-12",
        "Coefficient E": NaN,
        "Coefficient F": NaN,
        "Coefficient G": NaN,
        "T range, from": "175 K",
        "T range, to": "1670 K"
    },
    "Themal Conductivity (Liquid)": {
        "Equation Name": "Polynomial Equation",
        "Equation": "THL = A + B*T + C*T^2 + D*T^3  where T in K and THL in W/m.K",
        "Coefficient A": ".3546",
        "Coefficient B": "-8.951999E-04",
        "Coefficient C": "-1.796E-07",
        "Coefficient D": "0",
        "Coefficient E": NaN,
        "Coefficient F": NaN,
        "Coefficient G": NaN,
        "T range, from": "171 K",
        "T range, to": "293 K"
    },
    "Surface Tension": NaN,
    "Partial Molar Volume (VOLP)": NaN,
    "Solubility Parameters (SOLP)": "7.703288E+03 (J/cm^3)^0.5",
    "SRK accentric factor (WSRK)": "1.691000E-01",
    "COSTALD Characteristic Volume (VSTAR)": "9.800000E-02 m^3/kg-mol",
    "Rackett parameter (ZRA)": "2.758000E-01",
    "Aniline Point (ANP)": NaN,
    "H(formation,ideal gas)at 25 C": "8.160000E+04 kJ/kg-mol",
    "G(formation,ideal gas) at 25 C": "1.037000E+05 kJ/kg-mol",
    "Heat of Combustion, Gross form (HCB1)": NaN,
    "Heat of Combustion, Net form (HCB2)": NaN,
    "Van der Waals Volume (VDWV)": NaN,
    "Van der Waals Area (VDWA)": NaN,
    "UNIQUAC Ri Parameter (RI)": NaN,
    "UNIQUAC Qi Parameter (QI)": NaN,
    "Dipole Moment (DM)": "2.000000E-01 debye",
    "Radius of Gyration (GYRAD)": NaN,
    "Liquid Density (DENL)": "2.785553E-02 g-mol/cm^3",
    "Temperature of DENL (TDENL)": "1.840000E+02 K",
    "Heat of Vaporizaiton (HVAP)": NaN,
    "Temperature of HVAP (THVAP)": NaN,
    "Surface Tension (SRF)": NaN,
    "Temperature of SRF (TSRF)": NaN,
    "Dielectric Constant (DIEL)": NaN,
    "Temperature of DIEL (TDIEL)": NaN,
    "Refractive Index (RFI)": NaN,
    "Temperature of RFI (TRFI)": NaN,
    "Lower Flammability Limit(FLL)": NaN,
    "Upper Flammability Limit(FLU)": NaN,
    "Flash Point (Open Cup Method)": NaN,
    "Flash Point (Closed Cup Method)": NaN,
    "Autoignition Temperature (AIGT)": NaN,
    "NFPA Rating (Health)": NaN,
    "NFPA Rating (Fire)": NaN,
    "NFPA Rating (Safety)": NaN,
    "Class": "Inorganics",
    "Subclass": "Inorganics",
    "SMILES": "[N-]=[N+]=O"
}