{
    "ID": "1935",
    "Name": "OXYGEN",
    "Synonyms": NaN,
    "CAS No.": "7782-44-7",
    "Formula": "O2",
    "Molecular Wt. (WT)": "3.19988E+01",
    "Normal Boiling Point Temp. (TB)": "9.02000E+01 K",
    "Freezing Point Temp. (TF)": "5.43600E+01 K",
    "Triple Point Temp. (TT)": "5.43600E+01 K",
    "Triple Point Press. (PT)": "1.46330E-01 kPa",
    "Critical Temperature. (TC)": "1.54590E+02 K",
    "Critical Pressure (PC)": "5.04300E+03 kPa",
    "Critical Volume (VC)": "7.30000E-02 m^3/kg-mol",
    "Critical Compressibility (ZC)": "2.86414E-01",
    "Accentric Factor (ACCF)": "2.50000E-02",
    "Vapor Pressure": {
        "Equation Name": "KDB Correlation Equation",
        "Equation": "ln(Pvp) = A*ln(T) + B/T + C + D*T^2 where Pvp in kPa, T in K",
        "Coefficient A": "-3.408702E+00",
        "Coefficient B": "-1.098383E+03",
        "Coefficient C": "3.180089E+01",
        "Coefficient D": "4.190587E-05",
        "Coefficient E": NaN,
        "Coefficient F": NaN,
        "Coefficient G": NaN,
        "T range, from": "54.00 K",
        "T range, to": "154.15 K"
    },
    "Heat Capacity (Ideal Gas)": {
        "Equation Name": "Polynomial Equation",
        "Equation": "Cp = A + B*T + C*T^2 + D*T^3 + E*T^4  where Cp in kJ/kg-mol , T in K",
        "Coefficient A": "2.970450E+01",
        "Coefficient B": "-9.895231E-03",
        "Coefficient C": "3.989792E-05",
        "Coefficient D": "-3.394227E-08",
        "Coefficient E": "9.184016E-12",
        "Coefficient F": NaN,
        "Coefficient G": NaN,
        "T range, from": NaN,
        "T range, to": NaN
    },
    "Heat Capacity (Liquid)": {
        "Equation Name": "Polynomial Equation",
        "Equation": "Cp = A + B*T + C*T^2 + D*T^3  where T in K and Cp in kJ/kg-mol.K",
        "Coefficient A": "-61.41212",
        "Coefficient B": "4.329776",
        "Coefficient C": "-5.289717E-02",
        "Coefficient D": "2.109594E-04",
        "Coefficient E": NaN,
        "Coefficient F": NaN,
        "Coefficient G": NaN,
        "T range, from": "54.75 K",
        "T range, to": "143.15 K"
    },
    "Viscosity (Gas, Low P)": {
        "Equation Name": "Polynomial Equation",
        "Equation": "VISG = A + B*T + C*T^2 where T in K and VISG in cP",
        "Coefficient A": ".001811",
        "Coefficient B": "6.632E-05",
        "Coefficient C": "-1.879E-08",
        "Coefficient D": "0",
        "Coefficient E": NaN,
        "Coefficient F": NaN,
        "Coefficient G": NaN,
        "T range, from": "113.15 K",
        "T range, to": "1273.15 K"
    },
    "Viscosity (Liquid)": {
        "Equation Name": "Quasipolynomial Equation",
        "Equation": "ln (VISL) = A + B/T + C*T + D*T^2  where T in K and VISL in cP.",
        "Coefficient A": "-4.771",
        "Coefficient B": "214.6",
        "Coefficient C": ".01389",
        "Coefficient D": "-6.255E-05",
        "Coefficient E": NaN,
        "Coefficient F": NaN,
        "Coefficient G": NaN,
        "T range, from": "55.14999 K",
        "T range, to": "153.15 K"
    },
    "Themal Conductivity (Gas, Low P)": {
        "Equation Name": "Polynomial Equation",
        "Equation": "THG = A + B*T + C*T^2 + D*T^3  where T in K and THG in W/m.K",
        "Coefficient A": "-.0003273",
        "Coefficient B": "9.966E-05",
        "Coefficient C": "-3.743E-08",
        "Coefficient D": "9.732E-12",
        "Coefficient E": NaN,
        "Coefficient F": NaN,
        "Coefficient G": NaN,
        "T range, from": "115 K",
        "T range, to": "1470 K"
    },
    "Themal Conductivity (Liquid)": {
        "Equation Name": "Polynomial Equation",
        "Equation": "THL = A + B*T + C*T^2 + D*T^3  where T in K and THL in W/m.K",
        "Coefficient A": ".2444",
        "Coefficient B": "-.0008813",
        "Coefficient C": "-2.023E-06",
        "Coefficient D": "0",
        "Coefficient E": NaN,
        "Coefficient F": NaN,
        "Coefficient G": NaN,
        "T range, from": "55 K",
        "T range, to": "138 K"
    },
    "Surface Tension": NaN,
    "Partial Molar Volume (VOLP)": NaN,
    "Solubility Parameters (SOLP)": "8.181931E+03 (J/cm^3)^0.5",
    "SRK accentric factor (WSRK)": "2.980000E-02",
    "COSTALD Characteristic Volume (VSTAR)": "7.380000E-02 m^3/kg-mol",
    "Rackett parameter (ZRA)": "2.905000E-01",
    "Aniline Point (ANP)": NaN,
    "H(formation,ideal gas)at 25 C": NaN,
    "G(formation,ideal gas) at 25 C": NaN,
    "Heat of Combustion, Gross form (HCB1)": NaN,
    "Heat of Combustion, Net form (HCB2)": NaN,
    "Van der Waals Volume (VDWV)": NaN,
    "Van der Waals Area (VDWA)": NaN,
    "UNIQUAC Ri Parameter (RI)": NaN,
    "UNIQUAC Qi Parameter (QI)": NaN,
    "Dipole Moment (DM)": "0.000000E+00 debye",
    "Radius of Gyration (GYRAD)": "6.040000E-01",
    "Liquid Density (DENL)": "3.590760E-02 g-mol/cm^3",
    "Temperature of DENL (TDENL)": "9.000000E+01 K",
    "Heat of Vaporizaiton (HVAP)": NaN,
    "Temperature of HVAP (THVAP)": NaN,
    "Surface Tension (SRF)": NaN,
    "Temperature of SRF (TSRF)": NaN,
    "Dielectric Constant (DIEL)": NaN,
    "Temperature of DIEL (TDIEL)": NaN,
    "Refractive Index (RFI)": NaN,
    "Temperature of RFI (TRFI)": NaN,
    "Lower Flammability Limit(FLL)": NaN,
    "Upper Flammability Limit(FLU)": NaN,
    "Flash Point (Open Cup Method)": NaN,
    "Flash Point (Closed Cup Method)": NaN,
    "Autoignition Temperature (AIGT)": NaN,
    "NFPA Rating (Health)": NaN,
    "NFPA Rating (Fire)": NaN,
    "NFPA Rating (Safety)": NaN,
    "Class": "Inorganics",
    "Subclass": "Inorganics",
    "SMILES": "O=O"
}