{
    "ID": "1936",
    "Name": "SULFUR DIOXIDE",
    "Synonyms": "SULFUROUS ACID ANHYDRIDE, SULFUROUS ANHYDRIDE",
    "CAS No.": "7446-09-5",
    "Formula": "O2S",
    "Molecular Wt. (WT)": "6.40588E+01",
    "Normal Boiling Point Temp. (TB)": "2.63100E+02 K",
    "Freezing Point Temp. (TF)": "1.97600E+02 K",
    "Triple Point Temp. (TT)": "1.97680E+02 K",
    "Triple Point Press. (PT)": "1.67400E+00 kPa",
    "Critical Temperature. (TC)": "4.30800E+02 K",
    "Critical Pressure (PC)": "7.88400E+03 kPa",
    "Critical Volume (VC)": "1.22000E-01 m^3/kg-mol",
    "Critical Compressibility (ZC)": "2.68531E-01",
    "Accentric Factor (ACCF)": "2.56000E-01",
    "Vapor Pressure": {
        "Equation Name": "KDB Correlation Equation",
        "Equation": "ln(Pvp) = A*ln(T) + B/T + C + D*T^2 where Pvp in kPa, T in K",
        "Coefficient A": "-1.151821E+01",
        "Coefficient B": "-5.412471E+03",
        "Coefficient C": "8.803050E+01",
        "Coefficient D": "1.940627E-05",
        "Coefficient E": NaN,
        "Coefficient F": NaN,
        "Coefficient G": NaN,
        "T range, from": "195.00 K",
        "T range, to": "280.15 K"
    },
    "Heat Capacity (Ideal Gas)": {
        "Equation Name": "Polynomial Equation",
        "Equation": "Cp = A + B*T + C*T^2 + D*T^3 + E*T^4  where Cp in kJ/kg-mol , T in K",
        "Coefficient A": "3.166634E+01",
        "Coefficient B": "1.420460E-02",
        "Coefficient C": "7.029188E-05",
        "Coefficient D": "-9.310875E-08",
        "Coefficient E": "3.243881E-11",
        "Coefficient F": NaN,
        "Coefficient G": NaN,
        "T range, from": NaN,
        "T range, to": NaN
    },
    "Heat Capacity (Liquid)": {
        "Equation Name": "Polynomial Equation",
        "Equation": "Cp = A + B*T + C*T^2 + D*T^3  where T in K and Cp in kJ/kg-mol.K",
        "Coefficient A": "-153.7642",
        "Coefficient B": "2.771348",
        "Coefficient C": "-1.079593E-02",
        "Coefficient D": "1.416496E-05",
        "Coefficient E": NaN,
        "Coefficient F": NaN,
        "Coefficient G": NaN,
        "T range, from": "200.45 K",
        "T range, to": "423.15 K"
    },
    "Viscosity (Gas, Low P)": {
        "Equation Name": "Polynomial Equation",
        "Equation": "VISG = A + B*T + C*T^2 where T in K and VISG in cP",
        "Coefficient A": "-.0003793",
        "Coefficient B": "4.645E-05",
        "Coefficient C": "-7.276E-09",
        "Coefficient D": "0",
        "Coefficient E": NaN,
        "Coefficient F": NaN,
        "Coefficient G": NaN,
        "T range, from": "173.15 K",
        "T range, to": "1673.15 K"
    },
    "Viscosity (Liquid)": {
        "Equation Name": "Quasipolynomial Equation",
        "Equation": "ln (VISL) = A + B/T + C*T + D*T^2  where T in K and VISL in cP.",
        "Coefficient A": "-6.148",
        "Coefficient B": "936.5",
        "Coefficient C": ".01414",
        "Coefficient D": "-2.887E-05",
        "Coefficient E": NaN,
        "Coefficient F": NaN,
        "Coefficient G": NaN,
        "T range, from": "203.15 K",
        "T range, to": "428.15 K"
    },
    "Themal Conductivity (Gas, Low P)": {
        "Equation Name": "Polynomial Equation",
        "Equation": "THG = A + B*T + C*T^2 + D*T^3  where T in K and THG in W/m.K",
        "Coefficient A": "-8.086001E-03",
        "Coefficient B": "6.344E-05",
        "Coefficient C": "-1.382E-08",
        "Coefficient D": "2.303E-12",
        "Coefficient E": NaN,
        "Coefficient F": NaN,
        "Coefficient G": NaN,
        "T range, from": "273 K",
        "T range, to": "1670 K"
    },
    "Themal Conductivity (Liquid)": {
        "Equation Name": "Polynomial Equation",
        "Equation": "THL = A + B*T + C*T^2 + D*T^3  where T in K and THL in W/m.K",
        "Coefficient A": ".8964",
        "Coefficient B": "-.003281",
        "Coefficient C": "2.991E-06",
        "Coefficient D": "0",
        "Coefficient E": NaN,
        "Coefficient F": NaN,
        "Coefficient G": NaN,
        "T range, from": "223 K",
        "T range, to": "423 K"
    },
    "Surface Tension": NaN,
    "Partial Molar Volume (VOLP)": NaN,
    "Solubility Parameters (SOLP)": "1.227290E+04 (J/cm^3)^0.5",
    "SRK accentric factor (WSRK)": "2.645000E-01",
    "COSTALD Characteristic Volume (VSTAR)": "1.204000E-01 m^3/kg-mol",
    "Rackett parameter (ZRA)": "2.661000E-01",
    "Aniline Point (ANP)": NaN,
    "H(formation,ideal gas)at 25 C": "-2.971000E+05 kJ/kg-mol",
    "G(formation,ideal gas) at 25 C": "-3.004000E+05 kJ/kg-mol",
    "Heat of Combustion, Gross form (HCB1)": NaN,
    "Heat of Combustion, Net form (HCB2)": NaN,
    "Van der Waals Volume (VDWV)": NaN,
    "Van der Waals Area (VDWA)": NaN,
    "UNIQUAC Ri Parameter (RI)": "1.550000E+00",
    "UNIQUAC Qi Parameter (QI)": "1.450000E+00",
    "Dipole Moment (DM)": "1.600000E+00 debye",
    "Radius of Gyration (GYRAD)": "1.674000E+00",
    "Liquid Density (DENL)": "2.271351E-02 g-mol/cm^3",
    "Temperature of DENL (TDENL)": "2.630000E+02 K",
    "Heat of Vaporizaiton (HVAP)": NaN,
    "Temperature of HVAP (THVAP)": NaN,
    "Surface Tension (SRF)": NaN,
    "Temperature of SRF (TSRF)": NaN,
    "Dielectric Constant (DIEL)": NaN,
    "Temperature of DIEL (TDIEL)": NaN,
    "Refractive Index (RFI)": NaN,
    "Temperature of RFI (TRFI)": NaN,
    "Lower Flammability Limit(FLL)": NaN,
    "Upper Flammability Limit(FLU)": NaN,
    "Flash Point (Open Cup Method)": NaN,
    "Flash Point (Closed Cup Method)": NaN,
    "Autoignition Temperature (AIGT)": NaN,
    "NFPA Rating (Health)": 2.0,
    "NFPA Rating (Fire)": NaN,
    "NFPA Rating (Safety)": NaN,
    "Class": "Inorganics",
    "Subclass": "Inorganics",
    "SMILES": "O=S=O"
}