{
    "ID": "1938",
    "Name": "SULFUR TRIOXIDE",
    "Synonyms": "SULFURIC ANHYDRIDE, SULFAN, SULFURIC OXIDE",
    "CAS No.": "7446-11-9",
    "Formula": "O3S",
    "Molecular Wt. (WT)": "8.00582E+01",
    "Normal Boiling Point Temp. (TB)": "3.18000E+02 K",
    "Freezing Point Temp. (TF)": "2.89900E+02 K",
    "Triple Point Temp. (TT)": "2.89940E+02 K",
    "Triple Point Press. (PT)": "2.11300E+01 kPa",
    "Critical Temperature. (TC)": "4.91000E+02 K",
    "Critical Pressure (PC)": "8.20000E+03 kPa",
    "Critical Volume (VC)": "1.27000E-01 m^3/kg-mol",
    "Critical Compressibility (ZC)": "2.55094E-01",
    "Accentric Factor (ACCF)": "4.81000E-01",
    "Vapor Pressure": {
        "Equation Name": "KDB Correlation Equation",
        "Equation": "ln(Pvp) = A*ln(T) + B/T + C + D*T^2 where Pvp in kPa, T in K",
        "Coefficient A": "-1.872833E-06",
        "Coefficient B": "-5.294396E+03",
        "Coefficient C": "2.126353E+01",
        "Coefficient D": "3.793464E-12",
        "Coefficient E": NaN,
        "Coefficient F": NaN,
        "Coefficient G": NaN,
        "T range, from": "285.15 K",
        "T range, to": "363.15 K"
    },
    "Heat Capacity (Ideal Gas)": {
        "Equation Name": "Polynomial Equation",
        "Equation": "Cp = A + B*T + C*T^2 + D*T^3 + E*T^4  where Cp in kJ/kg-mol , T in K",
        "Coefficient A": "1.921000E+01",
        "Coefficient B": "1.374000E-01",
        "Coefficient C": "-1.176000E-04",
        "Coefficient D": "3.7E-08",
        "Coefficient E": "0",
        "Coefficient F": NaN,
        "Coefficient G": NaN,
        "T range, from": NaN,
        "T range, to": NaN
    },
    "Heat Capacity (Liquid)": {
        "Equation Name": "Polynomial Equation",
        "Equation": "Cp = A + B*T + C*T^2 + D*T^3  where T in K and Cp in kJ/kg-mol.K",
        "Coefficient A": "-1332.485",
        "Coefficient B": "13.45213",
        "Coefficient C": "-3.902325E-02",
        "Coefficient D": "3.952569E-05",
        "Coefficient E": NaN,
        "Coefficient F": NaN,
        "Coefficient G": NaN,
        "T range, from": "289.95 K",
        "T range, to": "473.15 K"
    },
    "Viscosity (Gas, Low P)": {
        "Equation Name": "Polynomial Equation",
        "Equation": "VISG = A + B*T + C*T^2 where T in K and VISG in cP",
        "Coefficient A": ".0004207",
        "Coefficient B": "4.712E-05",
        "Coefficient C": "-6.834E-09",
        "Coefficient D": "0",
        "Coefficient E": NaN,
        "Coefficient F": NaN,
        "Coefficient G": NaN,
        "T range, from": "173.15 K",
        "T range, to": "1673.15 K"
    },
    "Viscosity (Liquid)": {
        "Equation Name": "Quasipolynomial Equation",
        "Equation": "ln (VISL) = A + B/T + C*T + D*T^2  where T in K and VISL in cP.",
        "Coefficient A": "28.94",
        "Coefficient B": "-2277",
        "Coefficient C": "-.09392",
        "Coefficient D": "8.064E-05",
        "Coefficient E": NaN,
        "Coefficient F": NaN,
        "Coefficient G": NaN,
        "T range, from": "289.15 K",
        "T range, to": "483.15 K"
    },
    "Themal Conductivity (Gas, Low P)": {
        "Equation Name": "Polynomial Equation",
        "Equation": "THG = A + B*T + C*T^2 + D*T^3  where T in K and THG in W/m.K",
        "Coefficient A": "-.006683",
        "Coefficient B": "7.077E-05",
        "Coefficient C": "-1.968E-08",
        "Coefficient D": "1.256E-11",
        "Coefficient E": NaN,
        "Coefficient F": NaN,
        "Coefficient G": NaN,
        "T range, from": "175 K",
        "T range, to": "1270 K"
    },
    "Themal Conductivity (Liquid)": {
        "Equation Name": "Polynomial Equation",
        "Equation": "THL = A + B*T + C*T^2 + D*T^3  where T in K and THL in W/m.K",
        "Coefficient A": ".951",
        "Coefficient B": "-.003185",
        "Coefficient C": "2.789E-06",
        "Coefficient D": "0",
        "Coefficient E": NaN,
        "Coefficient F": NaN,
        "Coefficient G": NaN,
        "T range, from": "283 K",
        "T range, to": "483 K"
    },
    "Surface Tension": NaN,
    "Partial Molar Volume (VOLP)": NaN,
    "Solubility Parameters (SOLP)": "2.418783E+04 (J/cm^3)^0.5",
    "SRK accentric factor (WSRK)": "5.025000E-01",
    "COSTALD Characteristic Volume (VSTAR)": "1.222000E-01 m^3/kg-mol",
    "Rackett parameter (ZRA)": "2.515000E-01",
    "Aniline Point (ANP)": NaN,
    "H(formation,ideal gas)at 25 C": "-3.960000E+05 kJ/kg-mol",
    "G(formation,ideal gas) at 25 C": "-3.713000E+05 kJ/kg-mol",
    "Heat of Combustion, Gross form (HCB1)": NaN,
    "Heat of Combustion, Net form (HCB2)": NaN,
    "Van der Waals Volume (VDWV)": NaN,
    "Van der Waals Area (VDWA)": NaN,
    "UNIQUAC Ri Parameter (RI)": NaN,
    "UNIQUAC Qi Parameter (QI)": NaN,
    "Dipole Moment (DM)": "0.000000E+00 debye",
    "Radius of Gyration (GYRAD)": NaN,
    "Liquid Density (DENL)": "2.223383E-02 g-mol/cm^3",
    "Temperature of DENL (TDENL)": "3.180000E+02 K",
    "Heat of Vaporizaiton (HVAP)": NaN,
    "Temperature of HVAP (THVAP)": NaN,
    "Surface Tension (SRF)": NaN,
    "Temperature of SRF (TSRF)": NaN,
    "Dielectric Constant (DIEL)": NaN,
    "Temperature of DIEL (TDIEL)": NaN,
    "Refractive Index (RFI)": NaN,
    "Temperature of RFI (TRFI)": NaN,
    "Lower Flammability Limit(FLL)": NaN,
    "Upper Flammability Limit(FLU)": NaN,
    "Flash Point (Open Cup Method)": NaN,
    "Flash Point (Closed Cup Method)": NaN,
    "Autoignition Temperature (AIGT)": NaN,
    "NFPA Rating (Health)": NaN,
    "NFPA Rating (Fire)": NaN,
    "NFPA Rating (Safety)": NaN,
    "Class": "Inorganics",
    "Subclass": "Inorganics",
    "SMILES": "O=S(=O)=O"
}