{
    "ID": "194",
    "Name": "3-METHYL-1-BUTENE",
    "Synonyms": "ISOPROPYLETHYLENE, VINYLISOPROPYL, ISOPENTENE",
    "CAS No.": "563-45-1",
    "Formula": "C5H10",
    "Molecular Wt. (WT)": "7.01340E+01",
    "Normal Boiling Point Temp. (TB)": "2.93300E+02 K",
    "Freezing Point Temp. (TF)": "1.04700E+02 K",
    "Triple Point Temp. (TT)": NaN,
    "Triple Point Press. (PT)": NaN,
    "Critical Temperature. (TC)": "4.52700E+02 K",
    "Critical Pressure (PC)": "3.53000E+03 kPa",
    "Critical Volume (VC)": "3.04900E-01 m^3/kg-mol",
    "Critical Compressibility (ZC)": "2.85947E-01",
    "Accentric Factor (ACCF)": "2.09000E-01",
    "Vapor Pressure": {
        "Equation Name": "KDB Correlation Equation",
        "Equation": "ln(Pvp) = A*ln(T) + B/T + C + D*T^2 where Pvp in kPa, T in K",
        "Coefficient A": "-8.874931E+00",
        "Coefficient B": "-5.045794E+03",
        "Coefficient C": "7.123318E+01",
        "Coefficient D": "1.154509E-05",
        "Coefficient E": NaN,
        "Coefficient F": NaN,
        "Coefficient G": NaN,
        "T range, from": "104.66 K",
        "T range, to": "450.37 K"
    },
    "Heat Capacity (Ideal Gas)": {
        "Equation Name": "Polynomial Equation",
        "Equation": "Cp = A + B*T + C*T^2 + D*T^3 + E*T^4  where Cp in kJ/kg-mol , T in K",
        "Coefficient A": "-2.017257E+00",
        "Coefficient B": "4.450826E-01",
        "Coefficient C": "-2.592388E-04",
        "Coefficient D": "6.875893E-08",
        "Coefficient E": "-4.868712E-12",
        "Coefficient F": NaN,
        "Coefficient G": NaN,
        "T range, from": NaN,
        "T range, to": NaN
    },
    "Heat Capacity (Liquid)": NaN,
    "Viscosity (Gas, Low P)": NaN,
    "Viscosity (Liquid)": NaN,
    "Themal Conductivity (Gas, Low P)": NaN,
    "Themal Conductivity (Liquid)": NaN,
    "Surface Tension": NaN,
    "Partial Molar Volume (VOLP)": "1.118300E-01 m^3/kg-mol",
    "Solubility Parameters (SOLP)": "1.444111E+04 (J/cm^3)^0.5",
    "SRK accentric factor (WSRK)": "2.266000E-01",
    "COSTALD Characteristic Volume (VSTAR)": "2.940000E-01 m^3/kg-mol",
    "Rackett parameter (ZRA)": "2.739000E-01",
    "Aniline Point (ANP)": NaN,
    "H(formation,ideal gas)at 25 C": "-2.897000E+04 kJ/kg-mol",
    "G(formation,ideal gas) at 25 C": "7.482000E+04 kJ/kg-mol",
    "Heat of Combustion, Gross form (HCB1)": "3.343309E+06 kJ/kg-mol",
    "Heat of Combustion, Net form (HCB2)": "3.123230E+06 kJ/kg-mol",
    "Van der Waals Volume (VDWV)": NaN,
    "Van der Waals Area (VDWA)": NaN,
    "UNIQUAC Ri Parameter (RI)": 3.5945,
    "UNIQUAC Qi Parameter (QI)": 3.1,
    "Dipole Moment (DM)": NaN,
    "Radius of Gyration (GYRAD)": NaN,
    "Liquid Density (DENL)": "8.940028E-03 g-mol/cm^3",
    "Temperature of DENL (TDENL)": "2.930000E+02 K",
    "Heat of Vaporizaiton (HVAP)": "2.410000E+04 kJ/kg-mol",
    "Temperature of HVAP (THVAP)": "2.933000E+02 K",
    "Surface Tension (SRF)": "1.384000E+01 dyn/cm",
    "Temperature of SRF (TSRF)": "2.982000E+02 K",
    "Dielectric Constant (DIEL)": NaN,
    "Temperature of DIEL (TDIEL)": NaN,
    "Refractive Index (RFI)": "1.361100E+00",
    "Temperature of RFI (TRFI)": "2.981500E+02 K",
    "Lower Flammability Limit(FLL)": NaN,
    "Upper Flammability Limit(FLU)": NaN,
    "Flash Point (Open Cup Method)": NaN,
    "Flash Point (Closed Cup Method)": NaN,
    "Autoignition Temperature (AIGT)": NaN,
    "NFPA Rating (Health)": 2.0,
    "NFPA Rating (Fire)": 4.0,
    "NFPA Rating (Safety)": NaN,
    "Class": "Unsaturated Hydrocarbons",
    "Subclass": "Alkenes",
    "SMILES": "CC(C)C=C"
}