{
    "ID": "1940",
    "Name": "HYDROGEN CYANIDE",
    "Synonyms": "HYDROCYANIC ACID, FORMONITRILE, CARBON HYDRIDE NITIDE",
    "CAS No.": "74-90-8",
    "Formula": "CHN",
    "Molecular Wt. (WT)": "2.70256E+01",
    "Normal Boiling Point Temp. (TB)": "2.99000E+02 K",
    "Freezing Point Temp. (TF)": "2.59700E+02 K",
    "Triple Point Temp. (TT)": NaN,
    "Triple Point Press. (PT)": NaN,
    "Critical Temperature. (TC)": "4.56700E+02 K",
    "Critical Pressure (PC)": "5.39000E+03 kPa",
    "Critical Volume (VC)": "1.39000E-01 m^3/kg-mol",
    "Critical Compressibility (ZC)": "1.97304E-01",
    "Accentric Factor (ACCF)": "3.88000E-01",
    "Vapor Pressure": {
        "Equation Name": "KDB Correlation Equation",
        "Equation": "ln(Pvp) = A*ln(T) + B/T + C + D*T^2 where Pvp in kPa, T in K",
        "Coefficient A": "-7.511969E+00",
        "Coefficient B": "-4.934981E+03",
        "Coefficient C": "6.287339E+01",
        "Coefficient D": "1.207259E-05",
        "Coefficient E": NaN,
        "Coefficient F": NaN,
        "Coefficient G": NaN,
        "T range, from": "257.00 K",
        "T range, to": "456.65 K"
    },
    "Heat Capacity (Ideal Gas)": {
        "Equation Name": "Polynomial Equation",
        "Equation": "Cp = A + B*T + C*T^2 + D*T^3 + E*T^4  where Cp in kJ/kg-mol , T in K",
        "Coefficient A": "2.186000E+01",
        "Coefficient B": "6.062000E-02",
        "Coefficient C": "-4.961000E-05",
        "Coefficient D": "1.815E-08",
        "Coefficient E": "0",
        "Coefficient F": NaN,
        "Coefficient G": NaN,
        "T range, from": NaN,
        "T range, to": NaN
    },
    "Heat Capacity (Liquid)": NaN,
    "Viscosity (Gas, Low P)": NaN,
    "Viscosity (Liquid)": NaN,
    "Themal Conductivity (Gas, Low P)": NaN,
    "Themal Conductivity (Liquid)": NaN,
    "Surface Tension": NaN,
    "Partial Molar Volume (VOLP)": NaN,
    "Solubility Parameters (SOLP)": "2.394238E+04 (J/cm^3)^0.5",
    "SRK accentric factor (WSRK)": NaN,
    "COSTALD Characteristic Volume (VSTAR)": NaN,
    "Rackett parameter (ZRA)": NaN,
    "Aniline Point (ANP)": NaN,
    "H(formation,ideal gas)at 25 C": "1.306000E+05 kJ/kg-mol",
    "G(formation,ideal gas) at 25 C": "1.202000E+05 kJ/kg-mol",
    "Heat of Combustion, Gross form (HCB1)": NaN,
    "Heat of Combustion, Net form (HCB2)": NaN,
    "Van der Waals Volume (VDWV)": NaN,
    "Van der Waals Area (VDWA)": NaN,
    "UNIQUAC Ri Parameter (RI)": NaN,
    "UNIQUAC Qi Parameter (QI)": NaN,
    "Dipole Moment (DM)": "3.000000E+00 debye",
    "Radius of Gyration (GYRAD)": NaN,
    "Liquid Density (DENL)": "2.545734E-02 g-mol/cm^3",
    "Temperature of DENL (TDENL)": "2.930000E+02 K",
    "Heat of Vaporizaiton (HVAP)": NaN,
    "Temperature of HVAP (THVAP)": NaN,
    "Surface Tension (SRF)": NaN,
    "Temperature of SRF (TSRF)": NaN,
    "Dielectric Constant (DIEL)": NaN,
    "Temperature of DIEL (TDIEL)": NaN,
    "Refractive Index (RFI)": NaN,
    "Temperature of RFI (TRFI)": NaN,
    "Lower Flammability Limit(FLL)": NaN,
    "Upper Flammability Limit(FLU)": NaN,
    "Flash Point (Open Cup Method)": NaN,
    "Flash Point (Closed Cup Method)": NaN,
    "Autoignition Temperature (AIGT)": NaN,
    "NFPA Rating (Health)": 4.0,
    "NFPA Rating (Fire)": 4.0,
    "NFPA Rating (Safety)": 2.0,
    "Class": "Inorganics",
    "Subclass": "Inorganics",
    "SMILES": "C#N"
}