{
    "ID": "1942",
    "Name": "CARBON MONOXIDE",
    "Synonyms": "CARBON OXIDE, CARBONIC OXIDE",
    "CAS No.": "630-08-0",
    "Formula": "CO",
    "Molecular Wt. (WT)": "2.80104E+01",
    "Normal Boiling Point Temp. (TB)": "8.16000E+01 K",
    "Freezing Point Temp. (TF)": "6.80000E+01 K",
    "Triple Point Temp. (TT)": "6.81500E+01 K",
    "Triple Point Press. (PT)": "1.54200E+01 kPa",
    "Critical Temperature. (TC)": "1.32910E+02 K",
    "Critical Pressure (PC)": "3.49900E+03 kPa",
    "Critical Volume (VC)": "9.30000E-02 m^3/kg-mol",
    "Critical Compressibility (ZC)": "2.94464E-01",
    "Accentric Factor (ACCF)": "6.60000E-02",
    "Vapor Pressure": {
        "Equation Name": "KDB Correlation Equation",
        "Equation": "ln(Pvp) = A*ln(T) + B/T + C + D*T^2 where Pvp in kPa, T in K",
        "Coefficient A": "-8.129160E+00",
        "Coefficient B": "-1.277807E+03",
        "Coefficient C": "5.516950E+01",
        "Coefficient D": "1.330353E-04",
        "Coefficient E": NaN,
        "Coefficient F": NaN,
        "Coefficient G": NaN,
        "T range, from": "63.15 K",
        "T range, to": "132.92 K"
    },
    "Heat Capacity (Ideal Gas)": {
        "Equation Name": "Polynomial Equation",
        "Equation": "Cp = A + B*T + C*T^2 + D*T^3 + E*T^4  where Cp in kJ/kg-mol , T in K",
        "Coefficient A": "2.965146E+01",
        "Coefficient B": "-6.501572E-03",
        "Coefficient C": "1.832822E-05",
        "Coefficient D": "-9.394756E-09",
        "Coefficient E": "1.081685E-12",
        "Coefficient F": NaN,
        "Coefficient G": NaN,
        "T range, from": NaN,
        "T range, to": NaN
    },
    "Heat Capacity (Liquid)": {
        "Equation Name": "Polynomial Equation",
        "Equation": "Cp = A + B*T + C*T^2 + D*T^3  where T in K and Cp in kJ/kg-mol.K",
        "Coefficient A": "66.15687",
        "Coefficient B": ".5623041",
        "Coefficient C": "-.016841",
        "Coefficient D": "1.068765E-04",
        "Coefficient E": NaN,
        "Coefficient F": NaN,
        "Coefficient G": NaN,
        "T range, from": "68.14999 K",
        "T range, to": "123.15 K"
    },
    "Viscosity (Gas, Low P)": {
        "Equation Name": "Polynomial Equation",
        "Equation": "VISG = A + B*T + C*T^2 where T in K and VISG in cP",
        "Coefficient A": ".003228",
        "Coefficient B": "4.747E-05",
        "Coefficient C": "-9.648E-09",
        "Coefficient D": "0",
        "Coefficient E": NaN,
        "Coefficient F": NaN,
        "Coefficient G": NaN,
        "T range, from": "73.14999 K",
        "T range, to": "1673.15 K"
    },
    "Viscosity (Liquid)": {
        "Equation Name": "Quasipolynomial Equation",
        "Equation": "ln (VISL) = A + B/T + C*T + D*T^2  where T in K and VISL in cP.",
        "Coefficient A": "-5.402",
        "Coefficient B": "242.2",
        "Coefficient C": ".01062",
        "Coefficient D": "-4.522E-05",
        "Coefficient E": NaN,
        "Coefficient F": NaN,
        "Coefficient G": NaN,
        "T range, from": "73.14999 K",
        "T range, to": "133.15 K"
    },
    "Themal Conductivity (Gas, Low P)": {
        "Equation Name": "Polynomial Equation",
        "Equation": "THG = A + B*T + C*T^2 + D*T^3  where T in K and THG in W/m.K",
        "Coefficient A": ".0005067",
        "Coefficient B": "9.125E-05",
        "Coefficient C": "-3.524E-08",
        "Coefficient D": "8.199001E-12",
        "Coefficient E": NaN,
        "Coefficient F": NaN,
        "Coefficient G": NaN,
        "T range, from": "115 K",
        "T range, to": "1670 K"
    },
    "Themal Conductivity (Liquid)": {
        "Equation Name": "Polynomial Equation",
        "Equation": "THL = A + B*T + C*T^2 + D*T^3  where T in K and THL in W/m.K",
        "Coefficient A": ".1991",
        "Coefficient B": "1.386E-05",
        "Coefficient C": "-8.971E-06",
        "Coefficient D": "0",
        "Coefficient E": NaN,
        "Coefficient F": NaN,
        "Coefficient G": NaN,
        "T range, from": "68 K",
        "T range, to": "128 K"
    },
    "Surface Tension": NaN,
    "Partial Molar Volume (VOLP)": NaN,
    "Solubility Parameters (SOLP)": NaN,
    "SRK accentric factor (WSRK)": "2.950000E-02",
    "COSTALD Characteristic Volume (VSTAR)": "9.210000E-02 m^3/kg-mol",
    "Rackett parameter (ZRA)": "2.896000E-01",
    "Aniline Point (ANP)": NaN,
    "H(formation,ideal gas)at 25 C": "-1.106000E+05 kJ/kg-mol",
    "G(formation,ideal gas) at 25 C": "-1.374000E+05 kJ/kg-mol",
    "Heat of Combustion, Gross form (HCB1)": NaN,
    "Heat of Combustion, Net form (HCB2)": NaN,
    "Van der Waals Volume (VDWV)": NaN,
    "Van der Waals Area (VDWA)": NaN,
    "UNIQUAC Ri Parameter (RI)": NaN,
    "UNIQUAC Qi Parameter (QI)": NaN,
    "Dipole Moment (DM)": "1.000000E-01 debye",
    "Radius of Gyration (GYRAD)": "5.580000E-01",
    "Liquid Density (DENL)": "2.866792E-02 g-mol/cm^3",
    "Temperature of DENL (TDENL)": "8.100000E+01 K",
    "Heat of Vaporizaiton (HVAP)": "6.042000E+03 kJ/kg-mol",
    "Temperature of HVAP (THVAP)": "8.160000E+01 K",
    "Surface Tension (SRF)": "8.770000E+00 dyn/cm",
    "Temperature of SRF (TSRF)": "8.520000E+01 K",
    "Dielectric Constant (DIEL)": NaN,
    "Temperature of DIEL (TDIEL)": NaN,
    "Refractive Index (RFI)": NaN,
    "Temperature of RFI (TRFI)": NaN,
    "Lower Flammability Limit(FLL)": NaN,
    "Upper Flammability Limit(FLU)": NaN,
    "Flash Point (Open Cup Method)": NaN,
    "Flash Point (Closed Cup Method)": NaN,
    "Autoignition Temperature (AIGT)": NaN,
    "NFPA Rating (Health)": 2.0,
    "NFPA Rating (Fire)": 4.0,
    "NFPA Rating (Safety)": NaN,
    "Class": "Inorganics",
    "Subclass": "Inorganics",
    "SMILES": "[C-]#[O+]"
}