{
    "ID": "1943",
    "Name": "CARBON DIOXIDE",
    "Synonyms": "CARBONIC ANHYDRIDE",
    "CAS No.": "124-38-9",
    "Formula": "CO2",
    "Molecular Wt. (WT)": "4.40098E+01",
    "Normal Boiling Point Temp. (TB)": "1.94700E+02 K",
    "Freezing Point Temp. (TF)": "2.16580E+02 K",
    "Triple Point Temp. (TT)": "2.16580E+02 K",
    "Triple Point Press. (PT)": "5.18500E+02 kPa",
    "Critical Temperature. (TC)": "3.04140E+02 K",
    "Critical Pressure (PC)": "7.37500E+03 kPa",
    "Critical Volume (VC)": "9.40000E-02 m^3/kg-mol",
    "Critical Compressibility (ZC)": "2.74145E-01",
    "Accentric Factor (ACCF)": "2.39000E-01",
    "Vapor Pressure": {
        "Equation Name": "KDB Correlation Equation",
        "Equation": "ln(Pvp) = A*ln(T) + B/T + C + D*T^2 where Pvp in kPa, T in K",
        "Coefficient A": "-2.403761E+01",
        "Coefficient B": "-7.062404E+03",
        "Coefficient C": "1.663861E+02",
        "Coefficient D": "3.368548E-05",
        "Coefficient E": NaN,
        "Coefficient F": NaN,
        "Coefficient G": NaN,
        "T range, from": "154.15 K",
        "T range, to": "304.15 K"
    },
    "Heat Capacity (Ideal Gas)": {
        "Equation Name": "Polynomial Equation",
        "Equation": "Cp = A + B*T + C*T^2 + D*T^3 + E*T^4  where Cp in kJ/kg-mol , T in K",
        "Coefficient A": "2.926801E+01",
        "Coefficient B": "-2.236208E-02",
        "Coefficient C": "2.652535E-04",
        "Coefficient D": "-4.153087E-07",
        "Coefficient E": "2.005667E-10",
        "Coefficient F": NaN,
        "Coefficient G": NaN,
        "T range, from": NaN,
        "T range, to": NaN
    },
    "Heat Capacity (Liquid)": {
        "Equation Name": "Polynomial Equation",
        "Equation": "Cp = A + B*T + C*T^2 + D*T^3  where T in K and Cp in kJ/kg-mol.K",
        "Coefficient A": "-3553.844",
        "Coefficient B": "46.88128",
        "Coefficient C": "-.2017221",
        "Coefficient D": "2.897028E-04",
        "Coefficient E": NaN,
        "Coefficient F": NaN,
        "Coefficient G": NaN,
        "T range, from": "216.65 K",
        "T range, to": "293.15 K"
    },
    "Viscosity (Gas, Low P)": {
        "Equation Name": "Polynomial Equation",
        "Equation": "VISG = A + B*T + C*T^2 where T in K and VISG in cP",
        "Coefficient A": ".002545",
        "Coefficient B": "4.549E-05",
        "Coefficient C": "-8.649E-09",
        "Coefficient D": "0",
        "Coefficient E": NaN,
        "Coefficient F": NaN,
        "Coefficient G": NaN,
        "T range, from": "173.15 K",
        "T range, to": "1673.15 K"
    },
    "Viscosity (Liquid)": {
        "Equation Name": "Quasipolynomial Equation",
        "Equation": "ln (VISL) = A + B/T + C*T + D*T^2  where T in K and VISL in cP.",
        "Coefficient A": "-3.097",
        "Coefficient B": "48.86",
        "Coefficient C": ".02381",
        "Coefficient D": "-.0000784",
        "Coefficient E": NaN,
        "Coefficient F": NaN,
        "Coefficient G": NaN,
        "T range, from": "217.15 K",
        "T range, to": "303.15 K"
    },
    "Themal Conductivity (Gas, Low P)": {
        "Equation Name": "Polynomial Equation",
        "Equation": "THG = A + B*T + C*T^2 + D*T^3  where T in K and THG in W/m.K",
        "Coefficient A": "-.007215",
        "Coefficient B": "8.015001E-05",
        "Coefficient C": "5.477E-09",
        "Coefficient D": "-1.053E-11",
        "Coefficient E": NaN,
        "Coefficient F": NaN,
        "Coefficient G": NaN,
        "T range, from": "185 K",
        "T range, to": "1670 K"
    },
    "Themal Conductivity (Liquid)": {
        "Equation Name": "Polynomial Equation",
        "Equation": "THL = A + B*T + C*T^2 + D*T^3  where T in K and THL in W/m.K",
        "Coefficient A": ".407",
        "Coefficient B": "-.0008438",
        "Coefficient C": "-9.626E-07",
        "Coefficient D": "0",
        "Coefficient E": NaN,
        "Coefficient F": NaN,
        "Coefficient G": NaN,
        "T range, from": "217 K",
        "T range, to": "299 K"
    },
    "Surface Tension": NaN,
    "Partial Molar Volume (VOLP)": NaN,
    "Solubility Parameters (SOLP)": "1.456384E+04 (J/cm^3)^0.5",
    "SRK accentric factor (WSRK)": "2.373000E-01",
    "COSTALD Characteristic Volume (VSTAR)": "9.380000E-02 m^3/kg-mol",
    "Rackett parameter (ZRA)": "2.722000E-01",
    "Aniline Point (ANP)": NaN,
    "H(formation,ideal gas)at 25 C": "-3.938000E+05 kJ/kg-mol",
    "G(formation,ideal gas) at 25 C": "-3.946000E+05 kJ/kg-mol",
    "Heat of Combustion, Gross form (HCB1)": NaN,
    "Heat of Combustion, Net form (HCB2)": NaN,
    "Van der Waals Volume (VDWV)": NaN,
    "Van der Waals Area (VDWA)": NaN,
    "UNIQUAC Ri Parameter (RI)": "1.320000E+00",
    "UNIQUAC Qi Parameter (QI)": "1.280000E+00",
    "Dipole Moment (DM)": "0.000000E+00 debye",
    "Radius of Gyration (GYRAD)": "9.920000E-01",
    "Liquid Density (DENL)": NaN,
    "Temperature of DENL (TDENL)": NaN,
    "Heat of Vaporizaiton (HVAP)": "1.532600E+04 kJ/kg-mol",
    "Temperature of HVAP (THVAP)": "2.166000E+02 K",
    "Surface Tension (SRF)": "4.340000E+00 dyn/cm",
    "Temperature of SRF (TSRF)": "2.732000E+02 K",
    "Dielectric Constant (DIEL)": NaN,
    "Temperature of DIEL (TDIEL)": NaN,
    "Refractive Index (RFI)": NaN,
    "Temperature of RFI (TRFI)": NaN,
    "Lower Flammability Limit(FLL)": NaN,
    "Upper Flammability Limit(FLU)": NaN,
    "Flash Point (Open Cup Method)": NaN,
    "Flash Point (Closed Cup Method)": NaN,
    "Autoignition Temperature (AIGT)": NaN,
    "NFPA Rating (Health)": NaN,
    "NFPA Rating (Fire)": NaN,
    "NFPA Rating (Safety)": NaN,
    "Class": "Inorganics",
    "Subclass": "Inorganics",
    "SMILES": "C(=O)=O"
}