{
    "ID": "1946",
    "Name": "ARGON",
    "Synonyms": "ARGON-40",
    "CAS No.": "7440-37-1",
    "Formula": "Ar",
    "Molecular Wt. (WT)": "3.99480E+01",
    "Normal Boiling Point Temp. (TB)": "8.73000E+01 K",
    "Freezing Point Temp. (TF)": "8.38000E+01 K",
    "Triple Point Temp. (TT)": "8.38060E+01 K",
    "Triple Point Press. (PT)": "6.89500E+01 kPa",
    "Critical Temperature. (TC)": "1.50870E+02 K",
    "Critical Pressure (PC)": "4.89800E+03 kPa",
    "Critical Volume (VC)": "7.50000E-02 m^3/kg-mol",
    "Critical Compressibility (ZC)": "2.92847E-01",
    "Accentric Factor (ACCF)": "1.00000E-03",
    "Vapor Pressure": {
        "Equation Name": "KDB Correlation Equation",
        "Equation": "ln(Pvp) = A*ln(T) + B/T + C + D*T^2 where Pvp in kPa, T in K",
        "Coefficient A": "-3.238676E+00",
        "Coefficient B": "-1.024471E+03",
        "Coefficient C": "3.047255E+01",
        "Coefficient D": "4.649743E-05",
        "Coefficient E": NaN,
        "Coefficient F": NaN,
        "Coefficient G": NaN,
        "T range, from": "81.15 K",
        "T range, to": "149.66 K"
    },
    "Heat Capacity (Ideal Gas)": {
        "Equation Name": "Polynomial Equation",
        "Equation": "Cp = A + B*T + C*T^2 + D*T^3 + E*T^4  where Cp in kJ/kg-mol , T in K",
        "Coefficient A": "2.080000E+01",
        "Coefficient B": "0.000000E+00",
        "Coefficient C": "0.000000E+00",
        "Coefficient D": "0",
        "Coefficient E": "0",
        "Coefficient F": NaN,
        "Coefficient G": NaN,
        "T range, from": NaN,
        "T range, to": NaN
    },
    "Heat Capacity (Liquid)": {
        "Equation Name": "Polynomial Equation",
        "Equation": "Cp = A + B*T + C*T^2 + D*T^3  where T in K and Cp in kJ/kg-mol.K",
        "Coefficient A": "-79.86066",
        "Coefficient B": "3.87269",
        "Coefficient C": "-4.253775E-02",
        "Coefficient D": "1.625795E-04",
        "Coefficient E": NaN,
        "Coefficient F": NaN,
        "Coefficient G": NaN,
        "T range, from": "83.84999 K",
        "T range, to": "143.15 K"
    },
    "Viscosity (Gas, Low P)": {
        "Equation Name": "Polynomial Equation",
        "Equation": "VISG = A + B*T + C*T^2 where T in K and VISG in cP",
        "Coefficient A": ".004387",
        "Coefficient B": "6.399E-05",
        "Coefficient C": "-1.28E-08",
        "Coefficient D": "0",
        "Coefficient E": NaN,
        "Coefficient F": NaN,
        "Coefficient G": NaN,
        "T range, from": "273.15 K",
        "T range, to": "1473.15 K"
    },
    "Viscosity (Liquid)": {
        "Equation Name": "Quasipolynomial Equation",
        "Equation": "ln (VISL) = A + B/T + C*T + D*T^2  where T in K and VISL in cP.",
        "Coefficient A": "-28.51",
        "Coefficient B": "1057",
        "Coefficient C": ".2429",
        "Coefficient D": "-.0008096",
        "Coefficient E": NaN,
        "Coefficient F": NaN,
        "Coefficient G": NaN,
        "T range, from": "84.14999 K",
        "T range, to": "149.15 K"
    },
    "Themal Conductivity (Gas, Low P)": {
        "Equation Name": "Polynomial Equation",
        "Equation": "THG = A + B*T + C*T^2 + D*T^3  where T in K and THG in W/m.K",
        "Coefficient A": ".002714",
        "Coefficient B": ".0000554",
        "Coefficient C": "-2.178E-08",
        "Coefficient D": "5.528E-12",
        "Coefficient E": NaN,
        "Coefficient F": NaN,
        "Coefficient G": NaN,
        "T range, from": "115 K",
        "T range, to": "1470 K"
    },
    "Themal Conductivity (Liquid)": {
        "Equation Name": "Polynomial Equation",
        "Equation": "THL = A + B*T + C*T^2 + D*T^3  where T in K and THL in W/m.K",
        "Coefficient A": ".1862",
        "Coefficient B": "-.0004121",
        "Coefficient C": "-3.589E-06",
        "Coefficient D": "0",
        "Coefficient E": NaN,
        "Coefficient F": NaN,
        "Coefficient G": NaN,
        "T range, from": "84 K",
        "T range, to": "145 K"
    },
    "Surface Tension": NaN,
    "Partial Molar Volume (VOLP)": NaN,
    "Solubility Parameters (SOLP)": "1.090242E+04 (J/cm^3)^0.5",
    "SRK accentric factor (WSRK)": "-9.200000E-03",
    "COSTALD Characteristic Volume (VSTAR)": "7.540000E-02 m^3/kg-mol",
    "Rackett parameter (ZRA)": "2.922000E-01",
    "Aniline Point (ANP)": NaN,
    "H(formation,ideal gas)at 25 C": NaN,
    "G(formation,ideal gas) at 25 C": NaN,
    "Heat of Combustion, Gross form (HCB1)": NaN,
    "Heat of Combustion, Net form (HCB2)": NaN,
    "Van der Waals Volume (VDWV)": NaN,
    "Van der Waals Area (VDWA)": NaN,
    "UNIQUAC Ri Parameter (RI)": NaN,
    "UNIQUAC Qi Parameter (QI)": NaN,
    "Dipole Moment (DM)": "0.000000E+00 debye",
    "Radius of Gyration (GYRAD)": NaN,
    "Liquid Density (DENL)": "3.436968E-02 g-mol/cm^3",
    "Temperature of DENL (TDENL)": "9.000000E+01 K",
    "Heat of Vaporizaiton (HVAP)": NaN,
    "Temperature of HVAP (THVAP)": NaN,
    "Surface Tension (SRF)": NaN,
    "Temperature of SRF (TSRF)": NaN,
    "Dielectric Constant (DIEL)": NaN,
    "Temperature of DIEL (TDIEL)": NaN,
    "Refractive Index (RFI)": NaN,
    "Temperature of RFI (TRFI)": NaN,
    "Lower Flammability Limit(FLL)": NaN,
    "Upper Flammability Limit(FLU)": NaN,
    "Flash Point (Open Cup Method)": NaN,
    "Flash Point (Closed Cup Method)": NaN,
    "Autoignition Temperature (AIGT)": NaN,
    "NFPA Rating (Health)": NaN,
    "NFPA Rating (Fire)": NaN,
    "NFPA Rating (Safety)": NaN,
    "Class":"Elements",
    "Subclass":"Elements",
    "SMILES": "[Ar]"
}