{
    "ID": "1948",
    "Name": "BROMINE",
    "Synonyms": "BROMO",
    "CAS No.": "7726-95-6",
    "Formula": "Br2",
    "Molecular Wt. (WT)": "1.59808E+02",
    "Normal Boiling Point Temp. (TB)": "3.31900E+02 K",
    "Freezing Point Temp. (TF)": "2.65900E+02 K",
    "Triple Point Temp. (TT)": "2.80400E+02 K",
    "Triple Point Press. (PT)": "5.87900E+00 kPa",
    "Critical Temperature. (TC)": "5.88000E+02 K",
    "Critical Pressure (PC)": "1.03400E+04 kPa",
    "Critical Volume (VC)": "1.27000E-01 m^3/kg-mol",
    "Critical Compressibility (ZC)": "2.68603E-01",
    "Accentric Factor (ACCF)": "1.08000E-01",
    "Vapor Pressure": {
        "Equation Name": "KDB Correlation Equation",
        "Equation": "ln(Pvp) = A*ln(T) + B/T + C + D*T^2 where Pvp in kPa, T in K",
        "Coefficient A": "-3.415754E+01",
        "Coefficient B": "-1.116206E+04",
        "Coefficient C": "2.307932E+02",
        "Coefficient D": "5.201764E-05",
        "Coefficient E": NaN,
        "Coefficient F": NaN,
        "Coefficient G": NaN,
        "T range, from": "243.15 K",
        "T range, to": "354.00 K"
    },
    "Heat Capacity (Ideal Gas)": {
        "Equation Name": "Polynomial Equation",
        "Equation": "Cp = A + B*T + C*T^2 + D*T^3 + E*T^4  where Cp in kJ/kg-mol , T in K",
        "Coefficient A": "3.386000E+01",
        "Coefficient B": "1.125000E-02",
        "Coefficient C": "-1.192000E-05",
        "Coefficient D": "4.534E-09",
        "Coefficient E": "0",
        "Coefficient F": NaN,
        "Coefficient G": NaN,
        "T range, from": NaN,
        "T range, to": NaN
    },
    "Heat Capacity (Liquid)": {
        "Equation Name": "Polynomial Equation",
        "Equation": "Cp = A + B*T + C*T^2 + D*T^3  where T in K and Cp in kJ/kg-mol.K",
        "Coefficient A": "-266.5186",
        "Coefficient B": "2.976771",
        "Coefficient C": "-8.932985E-03",
        "Coefficient D": "8.839377E-06",
        "Coefficient E": NaN,
        "Coefficient F": NaN,
        "Coefficient G": NaN,
        "T range, from": "265.95 K",
        "T range, to": "553.15 K"
    },
    "Viscosity (Gas, Low P)": {
        "Equation Name": "Polynomial Equation",
        "Equation": "VISG = A + B*T + C*T^2 where T in K and VISG in cP",
        "Coefficient A": ".0002153",
        "Coefficient B": ".0000545",
        "Coefficient C": "-1.222E-08",
        "Coefficient D": "0",
        "Coefficient E": NaN,
        "Coefficient F": NaN,
        "Coefficient G": NaN,
        "T range, from": "73.14999 K",
        "T range, to": "1473.15 K"
    },
    "Viscosity (Liquid)": {
        "Equation Name": "Andrade Equation",
        "Equation": "ln (VISL) = A + B/ T  where T in K and VISL in cP.",
        "Coefficient A": "-3.112",
        "Coefficient B": "907.5",
        "Coefficient C": "0",
        "Coefficient D": "0",
        "Coefficient E": NaN,
        "Coefficient F": NaN,
        "Coefficient G": NaN,
        "T range, from": "269.15 K",
        "T range, to": "302.15 K"
    },
    "Themal Conductivity (Gas, Low P)": {
        "Equation Name": "Polynomial Equation",
        "Equation": "THG = A + B*T + C*T^2 + D*T^3  where T in K and THG in W/m.K",
        "Coefficient A": "-.000067",
        "Coefficient B": "1.729E-05",
        "Coefficient C": "-1.256E-09",
        "Coefficient D": "-3.769E-13",
        "Coefficient E": NaN,
        "Coefficient F": NaN,
        "Coefficient G": NaN,
        "T range, from": "195 K",
        "T range, to": "1470 K"
    },
    "Themal Conductivity (Liquid)": {
        "Equation Name": "Polynomial Equation",
        "Equation": "THL = A + B*T + C*T^2 + D*T^3  where T in K and THL in W/m.K",
        "Coefficient A": ".1608",
        "Coefficient B": "-1.285E-05",
        "Coefficient C": "-3.366E-07",
        "Coefficient D": "0",
        "Coefficient E": NaN,
        "Coefficient F": NaN,
        "Coefficient G": NaN,
        "T range, from": "266 K",
        "T range, to": "573 K"
    },
    "Surface Tension": NaN,
    "Partial Molar Volume (VOLP)": NaN,
    "Solubility Parameters (SOLP)": "2.290736E+04 (J/cm^3)^0.5",
    "SRK accentric factor (WSRK)": NaN,
    "COSTALD Characteristic Volume (VSTAR)": NaN,
    "Rackett parameter (ZRA)": NaN,
    "Aniline Point (ANP)": NaN,
    "H(formation,ideal gas)at 25 C": "3.093000E+04 kJ/kg-mol",
    "G(formation,ideal gas) at 25 C": "3.136000E+03 kJ/kg-mol",
    "Heat of Combustion, Gross form (HCB1)": NaN,
    "Heat of Combustion, Net form (HCB2)": NaN,
    "Van der Waals Volume (VDWV)": NaN,
    "Van der Waals Area (VDWA)": NaN,
    "UNIQUAC Ri Parameter (RI)": NaN,
    "UNIQUAC Qi Parameter (QI)": NaN,
    "Dipole Moment (DM)": "2.000000E-01 debye",
    "Radius of Gyration (GYRAD)": NaN,
    "Liquid Density (DENL)": "1.951717E-02 g-mol/cm^3",
    "Temperature of DENL (TDENL)": "2.930000E+02 K",
    "Heat of Vaporizaiton (HVAP)": NaN,
    "Temperature of HVAP (THVAP)": NaN,
    "Surface Tension (SRF)": NaN,
    "Temperature of SRF (TSRF)": NaN,
    "Dielectric Constant (DIEL)": NaN,
    "Temperature of DIEL (TDIEL)": NaN,
    "Refractive Index (RFI)": NaN,
    "Temperature of RFI (TRFI)": NaN,
    "Lower Flammability Limit(FLL)": NaN,
    "Upper Flammability Limit(FLU)": NaN,
    "Flash Point (Open Cup Method)": NaN,
    "Flash Point (Closed Cup Method)": NaN,
    "Autoignition Temperature (AIGT)": NaN,
    "NFPA Rating (Health)": 4.0,
    "NFPA Rating (Fire)": NaN,
    "NFPA Rating (Safety)": 1.0,
    "SMILES": "BrBr"
}