{
    "ID": "1949",
    "Name": "CHLORINE",
    "Synonyms": "BERTHOLITE, CHLORE",
    "CAS No.": "7782-50-5",
    "Formula": "Cl2",
    "Molecular Wt. (WT)": "7.09060E+01",
    "Normal Boiling Point Temp. (TB)": "2.39110E+02 K",
    "Freezing Point Temp. (TF)": "1.71600E+02 K",
    "Triple Point Temp. (TT)": "1.72170E+02 K",
    "Triple Point Press. (PT)": "1.39200E+00 kPa",
    "Critical Temperature. (TC)": "4.16900E+02 K",
    "Critical Pressure (PC)": "7.99100E+03 kPa",
    "Critical Volume (VC)": "1.23000E-01 m^3/kg-mol",
    "Critical Compressibility (ZC)": "2.83555E-01",
    "Accentric Factor (ACCF)": "9.00000E-02",
    "Vapor Pressure": {
        "Equation Name": "KDB Correlation Equation",
        "Equation": "ln(Pvp) = A*ln(T) + B/T + C + D*T^2 where Pvp in kPa, T in K",
        "Coefficient A": "-5.776190E+00",
        "Coefficient B": "-3.652915E+03",
        "Coefficient C": "5.100970E+01",
        "Coefficient D": "9.121940E-06",
        "Coefficient E": NaN,
        "Coefficient F": NaN,
        "Coefficient G": NaN,
        "T range, from": "172.15 K",
        "T range, to": "412.78 K"
    },
    "Heat Capacity (Ideal Gas)": {
        "Equation Name": "Polynomial Equation",
        "Equation": "Cp = A + B*T + C*T^2 + D*T^3 + E*T^4  where Cp in kJ/kg-mol , T in K",
        "Coefficient A": "2.646787E+01",
        "Coefficient B": "3.403532E-02",
        "Coefficient C": "-3.729254E-05",
        "Coefficient D": "1.587963E-08",
        "Coefficient E": "-1.716495E-12",
        "Coefficient F": NaN,
        "Coefficient G": NaN,
        "T range, from": NaN,
        "T range, to": NaN
    },
    "Heat Capacity (Liquid)": {
        "Equation Name": "Polynomial Equation",
        "Equation": "Cp = A + B*T + C*T^2 + D*T^3  where T in K and Cp in kJ/kg-mol.K",
        "Coefficient A": "-39.21987",
        "Coefficient B": "1.400286",
        "Coefficient C": "-6.043182E-03",
        "Coefficient D": "8.58565E-06",
        "Coefficient E": NaN,
        "Coefficient F": NaN,
        "Coefficient G": NaN,
        "T range, from": "172.15 K",
        "T range, to": "353.15 K"
    },
    "Viscosity (Gas, Low P)": {
        "Equation Name": "Polynomial Equation",
        "Equation": "VISG = A + B*T + C*T^2 where T in K and VISG in cP",
        "Coefficient A": ".0005175",
        "Coefficient B": "4.569E-05",
        "Coefficient C": "-8.854E-09",
        "Coefficient D": "0",
        "Coefficient E": NaN,
        "Coefficient F": NaN,
        "Coefficient G": NaN,
        "T range, from": "73.14999 K",
        "T range, to": "1473.15 K"
    },
    "Viscosity (Liquid)": {
        "Equation Name": "Quasipolynomial Equation",
        "Equation": "ln (VISL) = A + B/T + C*T + D*T^2  where T in K and VISL in cP.",
        "Coefficient A": "-1.768",
        "Coefficient B": "348.6",
        "Coefficient C": "-.001857",
        "Coefficient D": "7.8E-07",
        "Coefficient E": NaN,
        "Coefficient F": NaN,
        "Coefficient G": NaN,
        "T range, from": "172.15 K",
        "T range, to": "417.15 K"
    },
    "Themal Conductivity (Gas, Low P)": {
        "Equation Name": "Polynomial Equation",
        "Equation": "THG = A + B*T + C*T^2 + D*T^3  where T in K and THG in W/m.K",
        "Coefficient A": ".001361",
        "Coefficient B": "2.429E-05",
        "Coefficient C": "8.793999E-09",
        "Coefficient D": "-5.235E-12",
        "Coefficient E": NaN,
        "Coefficient F": NaN,
        "Coefficient G": NaN,
        "T range, from": "195 K",
        "T range, to": "1470 K"
    },
    "Themal Conductivity (Liquid)": {
        "Equation Name": "Polynomial Equation",
        "Equation": "THL = A + B*T + C*T^2 + D*T^3  where T in K and THL in W/m.K",
        "Coefficient A": ".2508",
        "Coefficient B": "-.0002022",
        "Coefficient C": "-6.381E-07",
        "Coefficient D": "0",
        "Coefficient E": NaN,
        "Coefficient F": NaN,
        "Coefficient G": NaN,
        "T range, from": "172 K",
        "T range, to": "405 K"
    },
    "Surface Tension": NaN,
    "Partial Molar Volume (VOLP)": NaN,
    "Solubility Parameters (SOLP)": "2.004369E+04 (J/cm^3)^0.5",
    "SRK accentric factor (WSRK)": "8.220000E-02",
    "COSTALD Characteristic Volume (VSTAR)": "1.223000E-01 m^3/kg-mol",
    "Rackett parameter (ZRA)": "2.767000E-01",
    "Aniline Point (ANP)": NaN,
    "H(formation,ideal gas)at 25 C": NaN,
    "G(formation,ideal gas) at 25 C": NaN,
    "Heat of Combustion, Gross form (HCB1)": NaN,
    "Heat of Combustion, Net form (HCB2)": NaN,
    "Van der Waals Volume (VDWV)": NaN,
    "Van der Waals Area (VDWA)": NaN,
    "UNIQUAC Ri Parameter (RI)": NaN,
    "UNIQUAC Qi Parameter (QI)": NaN,
    "Dipole Moment (DM)": "0.000000E+00 debye",
    "Radius of Gyration (GYRAD)": NaN,
    "Liquid Density (DENL)": "2.204327E-02 g-mol/cm^3",
    "Temperature of DENL (TDENL)": "2.390000E+02 K",
    "Heat of Vaporizaiton (HVAP)": NaN,
    "Temperature of HVAP (THVAP)": NaN,
    "Surface Tension (SRF)": NaN,
    "Temperature of SRF (TSRF)": NaN,
    "Dielectric Constant (DIEL)": NaN,
    "Temperature of DIEL (TDIEL)": NaN,
    "Refractive Index (RFI)": NaN,
    "Temperature of RFI (TRFI)": NaN,
    "Lower Flammability Limit(FLL)": NaN,
    "Upper Flammability Limit(FLU)": NaN,
    "Flash Point (Open Cup Method)": NaN,
    "Flash Point (Closed Cup Method)": NaN,
    "Autoignition Temperature (AIGT)": NaN,
    "NFPA Rating (Health)": 3.0,
    "NFPA Rating (Fire)": NaN,
    "NFPA Rating (Safety)": 1.0,
    "SMILES": "ClCl"
}