{
    "ID": "195",
    "Name": "2-METHYL-2-BUTENE",
    "Synonyms": "AMYLENE, 1,1,2-TRIMETHYLETHYLENE, 3-METHYL-2-BUTENE",
    "CAS No.": "513-35-9",
    "Formula": "C5H10",
    "Molecular Wt. (WT)": "7.01340E+01",
    "Normal Boiling Point Temp. (TB)": "3.11710E+02 K",
    "Freezing Point Temp. (TF)": "1.39390E+02 K",
    "Triple Point Temp. (TT)": NaN,
    "Triple Point Press. (PT)": NaN,
    "Critical Temperature. (TC)": "4.70000E+02 K",
    "Critical Pressure (PC)": "3.42000E+03 kPa",
    "Critical Volume (VC)": NaN,
    "Critical Compressibility (ZC)": NaN,
    "Accentric Factor (ACCF)": "2.44000E-01",
    "Vapor Pressure": {
        "Equation Name": "KDB Correlation Equation",
        "Equation": "ln(Pvp) = A*ln(T) + B/T + C + D*T^2 where Pvp in kPa, T in K",
        "Coefficient A": "-9.441863E+00",
        "Coefficient B": "-5.581608E+03",
        "Coefficient C": "7.566998E+01",
        "Coefficient D": "1.099371E-05",
        "Coefficient E": NaN,
        "Coefficient F": NaN,
        "Coefficient G": NaN,
        "T range, from": "139.39 K",
        "T range, to": "471.00 K"
    },
    "Heat Capacity (Ideal Gas)": {
        "Equation Name": "Polynomial Equation",
        "Equation": "Cp = A + B*T + C*T^2 + D*T^3 + E*T^4  where Cp in kJ/kg-mol , T in K",
        "Coefficient A": "-2.017257E+00",
        "Coefficient B": "4.450826E-01",
        "Coefficient C": "-2.592388E-04",
        "Coefficient D": "6.875893E-08",
        "Coefficient E": "-4.868712E-12",
        "Coefficient F": NaN,
        "Coefficient G": NaN,
        "T range, from": NaN,
        "T range, to": NaN
    },
    "Heat Capacity (Liquid)": NaN,
    "Viscosity (Gas, Low P)": NaN,
    "Viscosity (Liquid)": {
        "Equation Name": "Andrade Equation",
        "Equation": "ln (VISL) = A + B/ T  where T in K and VISL in cP.",
        "Coefficient A": "-4.115",
        "Coefficient B": "742.5",
        "Coefficient C": "0",
        "Coefficient D": "0",
        "Coefficient E": NaN,
        "Coefficient F": NaN,
        "Coefficient G": NaN,
        "T range, from": "273.15 K",
        "T range, to": "313.15 K"
    },
    "Themal Conductivity (Gas, Low P)": NaN,
    "Themal Conductivity (Liquid)": NaN,
    "Surface Tension": NaN,
    "Partial Molar Volume (VOLP)": "1.059000E-01 m^3/kg-mol",
    "Solubility Parameters (SOLP)": "1.444111E+04 (J/cm^3)^0.5",
    "SRK accentric factor (WSRK)": "2.852000E-01",
    "COSTALD Characteristic Volume (VSTAR)": "2.883000E-01 m^3/kg-mol",
    "Rackett parameter (ZRA)": "2.592000E-01",
    "Aniline Point (ANP)": "2.859500E+02 K",
    "H(formation,ideal gas)at 25 C": "-4.258000E+04 kJ/kg-mol",
    "G(formation,ideal gas) at 25 C": "5.970000E+04 kJ/kg-mol",
    "Heat of Combustion, Gross form (HCB1)": "3.326908E+06 kJ/kg-mol",
    "Heat of Combustion, Net form (HCB2)": "3.106829E+06 kJ/kg-mol",
    "Van der Waals Volume (VDWV)": NaN,
    "Van der Waals Area (VDWA)": NaN,
    "UNIQUAC Ri Parameter (RI)": 3.5919,
    "UNIQUAC Qi Parameter (QI)": 3.22,
    "Dipole Moment (DM)": NaN,
    "Radius of Gyration (GYRAD)": NaN,
    "Liquid Density (DENL)": "9.439074E-03 g-mol/cm^3",
    "Temperature of DENL (TDENL)": "2.930000E+02 K",
    "Heat of Vaporizaiton (HVAP)": "2.630500E+04 kJ/kg-mol",
    "Temperature of HVAP (THVAP)": "3.117000E+02 K",
    "Surface Tension (SRF)": "1.715000E+01 dyn/cm",
    "Temperature of SRF (TSRF)": "2.982000E+02 K",
    "Dielectric Constant (DIEL)": NaN,
    "Temperature of DIEL (TDIEL)": NaN,
    "Refractive Index (RFI)": "1.384200E+00",
    "Temperature of RFI (TRFI)": "2.981500E+02 K",
    "Lower Flammability Limit(FLL)": NaN,
    "Upper Flammability Limit(FLU)": NaN,
    "Flash Point (Open Cup Method)": NaN,
    "Flash Point (Closed Cup Method)": NaN,
    "Autoignition Temperature (AIGT)": NaN,
    "NFPA Rating (Health)": 2.0,
    "NFPA Rating (Fire)": 3.0,
    "NFPA Rating (Safety)": NaN,
    "Class": "Unsaturated Hydrocarbons",
    "Subclass": "Alkenes",
    "SMILES": "CC=C(C)C"
}