{
    "ID": "1951",
    "Name": "FLUORINE",
    "Synonyms": "BIFLUORIDEN",
    "CAS No.": "7782-41-4",
    "Formula": "F2",
    "Molecular Wt. (WT)": "3.79968E+01",
    "Normal Boiling Point Temp. (TB)": "8.50300E+01 K",
    "Freezing Point Temp. (TF)": "5.34900E+01 K",
    "Triple Point Temp. (TT)": NaN,
    "Triple Point Press. (PT)": NaN,
    "Critical Temperature. (TC)": "1.44130E+02 K",
    "Critical Pressure (PC)": "5.17200E+03 kPa",
    "Critical Volume (VC)": "6.60000E-02 m^3/kg-mol",
    "Critical Compressibility (ZC)": "2.84847E-01",
    "Accentric Factor (ACCF)": "5.40000E-02",
    "Vapor Pressure": {
        "Equation Name": "KDB Correlation Equation",
        "Equation": "ln(Pvp) = A*ln(T) + B/T + C + D*T^2 where Pvp in kPa, T in K",
        "Coefficient A": "-6.214078E+00",
        "Coefficient B": "-1.238755E+03",
        "Coefficient C": "4.616257E+01",
        "Coefficient D": "9.040461E-05",
        "Coefficient E": NaN,
        "Coefficient F": NaN,
        "Coefficient G": NaN,
        "T range, from": "54.15 K",
        "T range, to": "144.00 K"
    },
    "Heat Capacity (Ideal Gas)": {
        "Equation Name": "Polynomial Equation",
        "Equation": "Cp = A + B*T + C*T^2 + D*T^3 + E*T^4  where Cp in kJ/kg-mol , T in K",
        "Coefficient A": "2.322000E+01",
        "Coefficient B": "3.657000E-02",
        "Coefficient C": "-3.613000E-05",
        "Coefficient D": "1.204E-08",
        "Coefficient E": "0",
        "Coefficient F": NaN,
        "Coefficient G": NaN,
        "T range, from": NaN,
        "T range, to": NaN
    },
    "Heat Capacity (Liquid)": NaN,
    "Viscosity (Gas, Low P)": NaN,
    "Viscosity (Liquid)": NaN,
    "Themal Conductivity (Gas, Low P)": {
        "Equation Name": "Polynomial Equation",
        "Equation": "THG = A + B*T + C*T^2 + D*T^3  where T in K and THG in W/m.K",
        "Coefficient A": ".0007812",
        "Coefficient B": "8.287E-05",
        "Coefficient C": "5.193E-08",
        "Coefficient D": "-7.441E-11",
        "Coefficient E": NaN,
        "Coefficient F": NaN,
        "Coefficient G": NaN,
        "T range, from": "145 K",
        "T range, to": "795 K"
    },
    "Themal Conductivity (Liquid)": {
        "Equation Name": "Polynomial Equation",
        "Equation": "THL = A + B*T + C*T^2 + D*T^3  where T in K and THL in W/m.K",
        "Coefficient A": ".2565",
        "Coefficient B": "-.0006795",
        "Coefficient C": "-4.958E-06",
        "Coefficient D": "0",
        "Coefficient E": NaN,
        "Coefficient F": NaN,
        "Coefficient G": NaN,
        "T range, from": "54 K",
        "T range, to": "133 K"
    },
    "Surface Tension": NaN,
    "Partial Molar Volume (VOLP)": NaN,
    "Solubility Parameters (SOLP)": NaN,
    "SRK accentric factor (WSRK)": "4.930000E-02",
    "COSTALD Characteristic Volume (VSTAR)": "6.690000E-02 m^3/kg-mol",
    "Rackett parameter (ZRA)": "2.887000E-01",
    "Aniline Point (ANP)": NaN,
    "H(formation,ideal gas)at 25 C": NaN,
    "G(formation,ideal gas) at 25 C": NaN,
    "Heat of Combustion, Gross form (HCB1)": NaN,
    "Heat of Combustion, Net form (HCB2)": NaN,
    "Van der Waals Volume (VDWV)": NaN,
    "Van der Waals Area (VDWA)": NaN,
    "UNIQUAC Ri Parameter (RI)": NaN,
    "UNIQUAC Qi Parameter (QI)": NaN,
    "Dipole Moment (DM)": "0.000000E+00 debye",
    "Radius of Gyration (GYRAD)": NaN,
    "Liquid Density (DENL)": "3.974019E-02 g-mol/cm^3",
    "Temperature of DENL (TDENL)": "8.500000E+01 K",
    "Heat of Vaporizaiton (HVAP)": NaN,
    "Temperature of HVAP (THVAP)": NaN,
    "Surface Tension (SRF)": NaN,
    "Temperature of SRF (TSRF)": NaN,
    "Dielectric Constant (DIEL)": NaN,
    "Temperature of DIEL (TDIEL)": NaN,
    "Refractive Index (RFI)": NaN,
    "Temperature of RFI (TRFI)": NaN,
    "Lower Flammability Limit(FLL)": NaN,
    "Upper Flammability Limit(FLU)": NaN,
    "Flash Point (Open Cup Method)": NaN,
    "Flash Point (Closed Cup Method)": NaN,
    "Autoignition Temperature (AIGT)": NaN,
    "NFPA Rating (Health)": 4.0,
    "NFPA Rating (Fire)": NaN,
    "NFPA Rating (Safety)": 3.0,
    "SMILES": "FF"
}