{
    "ID": "1957",
    "Name": "KRYPTON",
    "Synonyms": NaN,
    "CAS No.": "7439-90-9",
    "Formula": "Kr",
    "Molecular Wt. (WT)": "8.38000E+01",
    "Normal Boiling Point Temp. (TB)": "1.19930E+02 K",
    "Freezing Point Temp. (TF)": "1.15790E+02 K",
    "Triple Point Temp. (TT)": "1.15800E+02 K",
    "Triple Point Press. (PT)": "7.29200E+01 kPa",
    "Critical Temperature. (TC)": "2.09410E+02 K",
    "Critical Pressure (PC)": "5.50000E+03 kPa",
    "Critical Volume (VC)": "9.10000E-02 m^3/kg-mol",
    "Critical Compressibility (ZC)": "2.87455E-01",
    "Accentric Factor (ACCF)": "5.00000E-03",
    "Vapor Pressure": {
        "Equation Name": "KDB Correlation Equation",
        "Equation": "ln(Pvp) = A*ln(T) + B/T + C + D*T^2 where Pvp in kPa, T in K",
        "Coefficient A": "1.412357E+00",
        "Coefficient B": "-9.215847E+02",
        "Coefficient C": "5.638299E+00",
        "Coefficient D": "-4.149310E-06",
        "Coefficient E": NaN,
        "Coefficient F": NaN,
        "Coefficient G": NaN,
        "T range, from": "127.15 K",
        "T range, to": "208.15 K"
    },
    "Heat Capacity (Ideal Gas)": {
        "Equation Name": "Polynomial Equation",
        "Equation": "Cp = A + B*T + C*T^2 + D*T^3 + E*T^4  where Cp in kJ/kg-mol , T in K",
        "Coefficient A": "2.080000E+01",
        "Coefficient B": "0.000000E+00",
        "Coefficient C": "0.000000E+00",
        "Coefficient D": "-.1",
        "Coefficient E": "0",
        "Coefficient F": NaN,
        "Coefficient G": NaN,
        "T range, from": NaN,
        "T range, to": NaN
    },
    "Heat Capacity (Liquid)": NaN,
    "Viscosity (Gas, Low P)": NaN,
    "Viscosity (Liquid)": NaN,
    "Themal Conductivity (Gas, Low P)": NaN,
    "Themal Conductivity (Liquid)": NaN,
    "Surface Tension": NaN,
    "Partial Molar Volume (VOLP)": NaN,
    "Solubility Parameters (SOLP)": "1.534112E+04 (J/cm^3)^0.5",
    "SRK accentric factor (WSRK)": "-5.000000E-03",
    "COSTALD Characteristic Volume (VSTAR)": "9.170000E-02 m^3/kg-mol",
    "Rackett parameter (ZRA)": "2.901000E-01",
    "Aniline Point (ANP)": NaN,
    "H(formation,ideal gas)at 25 C": NaN,
    "G(formation,ideal gas) at 25 C": NaN,
    "Heat of Combustion, Gross form (HCB1)": NaN,
    "Heat of Combustion, Net form (HCB2)": NaN,
    "Van der Waals Volume (VDWV)": NaN,
    "Van der Waals Area (VDWA)": NaN,
    "UNIQUAC Ri Parameter (RI)": NaN,
    "UNIQUAC Qi Parameter (QI)": NaN,
    "Dipole Moment (DM)": "0.000000E+00 debye",
    "Radius of Gyration (GYRAD)": NaN,
    "Liquid Density (DENL)": "2.887828E-02 g-mol/cm^3",
    "Temperature of DENL (TDENL)": "1.200000E+02 K",
    "Heat of Vaporizaiton (HVAP)": NaN,
    "Temperature of HVAP (THVAP)": NaN,
    "Surface Tension (SRF)": NaN,
    "Temperature of SRF (TSRF)": NaN,
    "Dielectric Constant (DIEL)": NaN,
    "Temperature of DIEL (TDIEL)": NaN,
    "Refractive Index (RFI)": NaN,
    "Temperature of RFI (TRFI)": NaN,
    "Lower Flammability Limit(FLL)": NaN,
    "Upper Flammability Limit(FLU)": NaN,
    "Flash Point (Open Cup Method)": NaN,
    "Flash Point (Closed Cup Method)": NaN,
    "Autoignition Temperature (AIGT)": NaN,
    "NFPA Rating (Health)": NaN,
    "NFPA Rating (Fire)": NaN,
    "NFPA Rating (Safety)": NaN,
    "SMILES": "[Kr]"
}