{
    "ID": "196",
    "Name": "1-HEXENE",
    "Synonyms": "BUTYLETHYLENE, 1-N-HEXENE, HEXENE",
    "CAS No.": "592-41-6",
    "Formula": "C6H12",
    "Molecular Wt. (WT)": "8.41608E+01",
    "Normal Boiling Point Temp. (TB)": "3.36630E+02 K",
    "Freezing Point Temp. (TF)": "1.33390E+02 K",
    "Triple Point Temp. (TT)": NaN,
    "Triple Point Press. (PT)": NaN,
    "Critical Temperature. (TC)": "5.04000E+02 K",
    "Critical Pressure (PC)": "3.21000E+03 kPa",
    "Critical Volume (VC)": "3.55100E-01 m^3/kg-mol",
    "Critical Compressibility (ZC)": "2.72012E-01",
    "Accentric Factor (ACCF)": "2.85000E-01",
    "Vapor Pressure": {
        "Equation Name": "KDB Correlation Equation",
        "Equation": "ln(Pvp) = A*ln(T) + B/T + C + D*T^2 where Pvp in kPa, T in K",
        "Coefficient A": "-9.066855E+00",
        "Coefficient B": "-6.020314E+03",
        "Coefficient C": "7.433390E+01",
        "Coefficient D": "8.228353E-06",
        "Coefficient E": NaN,
        "Coefficient F": NaN,
        "Coefficient G": NaN,
        "T range, from": "133.39 K",
        "T range, to": "504.03 K"
    },
    "Heat Capacity (Ideal Gas)": {
        "Equation Name": "Polynomial Equation",
        "Equation": "Cp = A + B*T + C*T^2 + D*T^3 + E*T^4  where Cp in kJ/kg-mol , T in K",
        "Coefficient A": "2.621553E-01",
        "Coefficient B": "5.261494E-01",
        "Coefficient C": "-2.952942E-04",
        "Coefficient D": "7.334559E-08",
        "Coefficient E": "-4.76884E-12",
        "Coefficient F": NaN,
        "Coefficient G": NaN,
        "T range, from": NaN,
        "T range, to": NaN
    },
    "Heat Capacity (Liquid)": NaN,
    "Viscosity (Gas, Low P)": NaN,
    "Viscosity (Liquid)": {
        "Equation Name": "Andrade Equation",
        "Equation": "ln (VISL) = A + B/ T  where T in K and VISL in cP.",
        "Coefficient A": "-4.162",
        "Coefficient B": "822.9999",
        "Coefficient C": "0",
        "Coefficient D": "0",
        "Coefficient E": NaN,
        "Coefficient F": NaN,
        "Coefficient G": NaN,
        "T range, from": "218.15 K",
        "T range, to": "343.15 K"
    },
    "Themal Conductivity (Gas, Low P)": NaN,
    "Themal Conductivity (Liquid)": NaN,
    "Surface Tension": NaN,
    "Partial Molar Volume (VOLP)": "1.259000E-01 m^3/kg-mol",
    "Solubility Parameters (SOLP)": "1.490952E+04 (J/cm^3)^0.5",
    "SRK accentric factor (WSRK)": "2.850000E-01",
    "COSTALD Characteristic Volume (VSTAR)": "3.509000E-01 m^3/kg-mol",
    "Rackett parameter (ZRA)": "2.658000E-01",
    "Aniline Point (ANP)": "2.959500E+02 K",
    "H(formation,ideal gas)at 25 C": "-4.170000E+04 kJ/kg-mol",
    "G(formation,ideal gas) at 25 C": "8.750000E+04 kJ/kg-mol",
    "Heat of Combustion, Gross form (HCB1)": "4.003753E+06 kJ/kg-mol",
    "Heat of Combustion, Net form (HCB2)": "3.739659E+06 kJ/kg-mol",
    "Van der Waals Volume (VDWV)": NaN,
    "Van der Waals Area (VDWA)": NaN,
    "UNIQUAC Ri Parameter (RI)": "4.269700E+00",
    "UNIQUAC Qi Parameter (QI)": "3.644000E+00",
    "Dipole Moment (DM)": "4.000000E-01 debye",
    "Radius of Gyration (GYRAD)": "3.647000E+00",
    "Liquid Density (DENL)": "7.996597E-03 g-mol/cm^3",
    "Temperature of DENL (TDENL)": "2.930000E+02 K",
    "Heat of Vaporizaiton (HVAP)": "2.828400E+04 kJ/kg-mol",
    "Temperature of HVAP (THVAP)": "3.379000E+02 K",
    "Surface Tension (SRF)": "1.790000E+01 dyn/cm",
    "Temperature of SRF (TSRF)": "2.982000E+02 K",
    "Dielectric Constant (DIEL)": NaN,
    "Temperature of DIEL (TDIEL)": NaN,
    "Refractive Index (RFI)": "1.385020E+00",
    "Temperature of RFI (TRFI)": "2.981500E+02 K",
    "Lower Flammability Limit(FLL)": "1.200000E+00 % in Air",
    "Upper Flammability Limit(FLU)": NaN,
    "Flash Point (Open Cup Method)": "2.470389E+02 K",
    "Flash Point (Closed Cup Method)": "2.553722E+02 K",
    "Autoignition Temperature (AIGT)": "5.448167E+02 K",
    "NFPA Rating (Health)": "1",
    "NFPA Rating (Fire)": "3",
    "NFPA Rating (Safety)": NaN,
    "Class": "Unsaturated Hydrocarbons",
    "Subclass": "Alkenes",
    "SMILES": "CCCCC=C"
}