{
    "ID": "1960",
    "Name": "NEON",
    "Synonyms": NaN,
    "CAS No.": "7440-01-9",
    "Formula": "Ne",
    "Molecular Wt. (WT)": "2.01790E+01",
    "Normal Boiling Point Temp. (TB)": "2.70700E+01 K",
    "Freezing Point Temp. (TF)": "2.45600E+01 K",
    "Triple Point Temp. (TT)": "2.45560E+01 K",
    "Triple Point Press. (PT)": "5.00000E+01 kPa",
    "Critical Temperature. (TC)": "4.44000E+01 K",
    "Critical Pressure (PC)": "2.76000E+03 kPa",
    "Critical Volume (VC)": "4.20000E-02 m^3/kg-mol",
    "Critical Compressibility (ZC)": "3.14007E-01",
    "Accentric Factor (ACCF)": "-2.90000E-02",
    "Vapor Pressure": {
        "Equation Name": "KDB Correlation Equation",
        "Equation": "ln(Pvp) = A*ln(T) + B/T + C + D*T^2 where Pvp in kPa, T in K",
        "Coefficient A": "-1.660048E+00",
        "Coefficient B": "-2.471224E+02",
        "Coefficient C": "1.886901E+01",
        "Coefficient D": "4.634373E-04",
        "Coefficient E": NaN,
        "Coefficient F": NaN,
        "Coefficient G": NaN,
        "T range, from": "24.15 K",
        "T range, to": "44.00 K"
    },
    "Heat Capacity (Ideal Gas)": {
        "Equation Name": "Polynomial Equation",
        "Equation": "Cp = A + B*T + C*T^2 + D*T^3 + E*T^4  where Cp in kJ/kg-mol , T in K",
        "Coefficient A": "2.080000E+01",
        "Coefficient B": "0.000000E+00",
        "Coefficient C": "-1.000000E-01",
        "Coefficient D": "-.1",
        "Coefficient E": "0",
        "Coefficient F": NaN,
        "Coefficient G": NaN,
        "T range, from": NaN,
        "T range, to": NaN
    },
    "Heat Capacity (Liquid)": {
        "Equation Name": "Polynomial Equation",
        "Equation": "Cp = A + B*T + C*T^2 + D*T^3  where T in K and Cp in kJ/kg-mol.K",
        "Coefficient A": "-145.7243",
        "Coefficient B": "17.81197",
        "Coefficient C": "-.5895166",
        "Coefficient D": "6.701547E-03",
        "Coefficient E": NaN,
        "Coefficient F": NaN,
        "Coefficient G": NaN,
        "T range, from": "24.45 K",
        "T range, to": "43.14999 K"
    },
    "Viscosity (Gas, Low P)": {
        "Equation Name": "Polynomial Equation",
        "Equation": "VISG = A + B*T + C*T^2 where T in K and VISG in cP",
        "Coefficient A": ".008779",
        "Coefficient B": "7.859999E-05",
        "Coefficient C": "-1.762E-08",
        "Coefficient D": "0",
        "Coefficient E": NaN,
        "Coefficient F": NaN,
        "Coefficient G": NaN,
        "T range, from": "113.15 K",
        "T range, to": "1473.15 K"
    },
    "Viscosity (Liquid)": {
        "Equation Name": "Quasipolynomial Equation",
        "Equation": "ln (VISL) = A + B/T + C*T + D*T^2  where T in K and VISL in cP.",
        "Coefficient A": "-19.29",
        "Coefficient B": "199",
        "Coefficient C": ".5453",
        "Coefficient D": "-.006675",
        "Coefficient E": NaN,
        "Coefficient F": NaN,
        "Coefficient G": NaN,
        "T range, from": "25.14999 K",
        "T range, to": "44.14999 K"
    },
    "Themal Conductivity (Gas, Low P)": NaN,
    "Themal Conductivity (Liquid)": {
        "Equation Name": "Polynomial Equation",
        "Equation": "THL = A + B*T + C*T^2 + D*T^3  where T in K and THL in W/m.K",
        "Coefficient A": ".01374",
        "Coefficient B": "8.392001E-03",
        "Coefficient C": "-.0001726",
        "Coefficient D": "0",
        "Coefficient E": NaN,
        "Coefficient F": NaN,
        "Coefficient G": NaN,
        "T range, from": "25 K",
        "T range, to": "43 K"
    },
    "Surface Tension": NaN,
    "Partial Molar Volume (VOLP)": NaN,
    "Solubility Parameters (SOLP)": NaN,
    "SRK accentric factor (WSRK)": "-3.620000E-02",
    "COSTALD Characteristic Volume (VSTAR)": "4.250000E-02 m^3/kg-mol",
    "Rackett parameter (ZRA)": "3.085000E-01",
    "Aniline Point (ANP)": NaN,
    "H(formation,ideal gas)at 25 C": NaN,
    "G(formation,ideal gas) at 25 C": NaN,
    "Heat of Combustion, Gross form (HCB1)": NaN,
    "Heat of Combustion, Net form (HCB2)": NaN,
    "Van der Waals Volume (VDWV)": NaN,
    "Van der Waals Area (VDWA)": NaN,
    "UNIQUAC Ri Parameter (RI)": NaN,
    "UNIQUAC Qi Parameter (QI)": NaN,
    "Dipole Moment (DM)": "0.000000E+00 debye",
    "Radius of Gyration (GYRAD)": NaN,
    "Liquid Density (DENL)": "5.966599E-02 g-mol/cm^3",
    "Temperature of DENL (TDENL)": "2.700000E+01 K",
    "Heat of Vaporizaiton (HVAP)": NaN,
    "Temperature of HVAP (THVAP)": NaN,
    "Surface Tension (SRF)": NaN,
    "Temperature of SRF (TSRF)": NaN,
    "Dielectric Constant (DIEL)": NaN,
    "Temperature of DIEL (TDIEL)": NaN,
    "Refractive Index (RFI)": NaN,
    "Temperature of RFI (TRFI)": NaN,
    "Lower Flammability Limit(FLL)": NaN,
    "Upper Flammability Limit(FLU)": NaN,
    "Flash Point (Open Cup Method)": NaN,
    "Flash Point (Closed Cup Method)": NaN,
    "Autoignition Temperature (AIGT)": NaN,
    "NFPA Rating (Health)": NaN,
    "NFPA Rating (Fire)": NaN,
    "NFPA Rating (Safety)": NaN,
    "SMILES": "[Ne]"
}