{
    "ID": "198",
    "Name": "TRANS-2-HEXENE",
    "Synonyms": "(E)-2-HEXENE",
    "CAS No.": "4050-45-7",
    "Formula": "C6H12",
    "Molecular Wt. (WT)": "8.41608E+01",
    "Normal Boiling Point Temp. (TB)": "3.41000E+02 K",
    "Freezing Point Temp. (TF)": "1.40000E+02 K",
    "Triple Point Temp. (TT)": NaN,
    "Triple Point Press. (PT)": NaN,
    "Critical Temperature. (TC)": "5.16000E+02 K",
    "Critical Pressure (PC)": "3.27000E+03 kPa",
    "Critical Volume (VC)": "3.51000E-01 m^3/kg-mol",
    "Critical Compressibility (ZC)": "2.67528E-01",
    "Accentric Factor (ACCF)": "2.42000E-01",
    "Vapor Pressure": {
        "Equation Name": "KDB Correlation Equation",
        "Equation": "ln(Pvp) = A*ln(T) + B/T + C + D*T^2 where Pvp in kPa, T in K",
        "Coefficient A": "-9.125143E+00",
        "Coefficient B": "-6.199230E+03",
        "Coefficient C": "7.517736E+01",
        "Coefficient D": "7.242248E-06",
        "Coefficient E": NaN,
        "Coefficient F": NaN,
        "Coefficient G": NaN,
        "T range, from": "140.17 K",
        "T range, to": "513.00 K"
    },
    "Heat Capacity (Ideal Gas)": {
        "Equation Name": "Polynomial Equation",
        "Equation": "Cp = A + B*T + C*T^2 + D*T^3 + E*T^4  where Cp in kJ/kg-mol , T in K",
        "Coefficient A": "-1.501050E+00",
        "Coefficient B": "5.323485E-01",
        "Coefficient C": "-3.021132E-04",
        "Coefficient D": "7.605896E-08",
        "Coefficient E": "-5.002797E-12",
        "Coefficient F": NaN,
        "Coefficient G": NaN,
        "T range, from": NaN,
        "T range, to": NaN
    },
    "Heat Capacity (Liquid)": NaN,
    "Viscosity (Gas, Low P)": NaN,
    "Viscosity (Liquid)": NaN,
    "Themal Conductivity (Gas, Low P)": NaN,
    "Themal Conductivity (Liquid)": NaN,
    "Surface Tension": NaN,
    "Partial Molar Volume (VOLP)": NaN,
    "Solubility Parameters (SOLP)": "1.523680E+04 (J/cm^3)^0.5",
    "SRK accentric factor (WSRK)": "2.532000E-01",
    "COSTALD Characteristic Volume (VSTAR)": "3.491000E-01 m^3/kg-mol",
    "Rackett parameter (ZRA)": NaN,
    "Aniline Point (ANP)": "2.991500E+02 K",
    "H(formation,ideal gas)at 25 C": "-5.393000E+04 kJ/kg-mol",
    "G(formation,ideal gas) at 25 C": "7.649000E+04 kJ/kg-mol",
    "Heat of Combustion, Gross form (HCB1)": "3.990574E+06 kJ/kg-mol",
    "Heat of Combustion, Net form (HCB2)": "3.726480E+06 kJ/kg-mol",
    "Van der Waals Volume (VDWV)": NaN,
    "Van der Waals Area (VDWA)": NaN,
    "UNIQUAC Ri Parameter (RI)": NaN,
    "UNIQUAC Qi Parameter (QI)": NaN,
    "Dipole Moment (DM)": NaN,
    "Radius of Gyration (GYRAD)": NaN,
    "Liquid Density (DENL)": "8.056007E-03 g-mol/cm^3",
    "Temperature of DENL (TDENL)": "2.930000E+02 K",
    "Heat of Vaporizaiton (HVAP)": "2.891100E+04 kJ/kg-mol",
    "Temperature of HVAP (THVAP)": "3.410000E+02 K",
    "Surface Tension (SRF)": "1.860000E+01 dyn/cm",
    "Temperature of SRF (TSRF)": "2.982000E+02 K",
    "Dielectric Constant (DIEL)": NaN,
    "Temperature of DIEL (TDIEL)": NaN,
    "Refractive Index (RFI)": "1.390730E+00",
    "Temperature of RFI (TRFI)": "2.981500E+02 K",
    "Lower Flammability Limit(FLL)": NaN,
    "Upper Flammability Limit(FLU)": NaN,
    "Flash Point (Open Cup Method)": NaN,
    "Flash Point (Closed Cup Method)": NaN,
    "Autoignition Temperature (AIGT)": NaN,
    "NFPA Rating (Health)": NaN,
    "NFPA Rating (Fire)": NaN,
    "NFPA Rating (Safety)": NaN,
    "Class": "Unsaturated Hydrocarbons",
    "Subclass": "Alkenes",
    "SMILES": "CCC/C=C/C"
}