{
    "ID": "2",
    "Name": "ETHANE",
    "Synonyms": "BIMETHYL, DIMETHYL, METHYLMETHANE",
    "CAS No.": "74-84-0",
    "Formula": "C2H6",
    "Molecular Wt. (WT)": "3.00694E+01",
    "Normal Boiling Point Temp. (TB)": "1.84500E+02 K",
    "Freezing Point Temp. (TF)": "9.03000E+01 K",
    "Triple Point Temp. (TT)": NaN,
    "Triple Point Press. (PT)": NaN,
    "Critical Temperature. (TC)": "3.05320E+02 K",
    "Critical Pressure (PC)": "4.87200E+03 kPa",
    "Critical Volume (VC)": "1.45500E-01 m^3/kg-mol",
    "Critical Compressibility (ZC)": "2.79240E-01",
    "Accentric Factor (ACCF)": "9.90000E-02",
    "Vapor Pressure": {
        "Equation Name": "KDB Correlation Equation",
        "Equation": "ln(Pvp) = A*ln(T) + B/T + C + D*T^2 where Pvp in kPa, T in K",
        "Coefficient A": "-5.381564E+00",
        "Coefficient B": "-2.626728E+03",
        "Coefficient C": "4.639131E+01",
        "Coefficient D": "1.601858E-05",
        "Coefficient E": NaN,
        "Coefficient F": NaN,
        "Coefficient G": NaN,
        "T range, from": "90.35 K",
        "T range, to": "305.42 K"
    },
    "Heat Capacity (Ideal Gas)": {
        "Equation Name": "Polynomial Equation",
        "Equation": "Cp = A + B*T + C*T^2 + D*T^3 + E*T^4  where Cp in kJ/kg-mol , T in K",
        "Coefficient A": "3.331272E+01",
        "Coefficient B": "-1.113456E-02",
        "Coefficient C": "3.565819E-04",
        "Coefficient D": "-3.76217E-07",
        "Coefficient E": "1.198323E-10",
        "Coefficient F": NaN,
        "Coefficient G": NaN,
        "T range, from": NaN,
        "T range, to": NaN
    },
    "Heat Capacity (Liquid)": {
        "Equation Name": "Polynomial Equation",
        "Equation": "Cp = A + B*T + C*T^2 + D*T^3  where T in K and Cp in kJ/kg-mol.K",
        "Coefficient A": "17.46248",
        "Coefficient B": "1.066998",
        "Coefficient C": "-7.113318E-03",
        "Coefficient D": "1.586469E-05",
        "Coefficient E": NaN,
        "Coefficient F": NaN,
        "Coefficient G": NaN,
        "T range, from": "89.95 K",
        "T range, to": "293.15 K"
    },
    "Viscosity (Gas, Low P)": {
        "Equation Name": "Polynomial Equation",
        "Equation": "VISG = A + B*T + C*T^2 where T in K and VISG in cP",
        "Coefficient A": ".0005576",
        "Coefficient B": "3.064E-05",
        "Coefficient C": "-5.307E-09",
        "Coefficient D": "0",
        "Coefficient E": NaN,
        "Coefficient F": NaN,
        "Coefficient G": NaN,
        "T range, from": "193.15 K",
        "T range, to": "1273.15 K"
    },
    "Viscosity (Liquid)": {
        "Equation Name": "Quasipolynomial Equation",
        "Equation": "ln (VISL) = A + B/T + C*T + D*T^2  where T in K and VISL in cP.",
        "Coefficient A": "-10.23",
        "Coefficient B": "668",
        "Coefficient C": ".04386",
        "Coefficient D": "-9.588E-05",
        "Coefficient E": NaN,
        "Coefficient F": NaN,
        "Coefficient G": NaN,
        "T range, from": "90.14999 K",
        "T range, to": "305.15 K"
    },
    "Themal Conductivity (Gas, Low P)": {
        "Equation Name": "Polynomial Equation",
        "Equation": "THG = A + B*T + C*T^2 + D*T^3  where T in K and THG in W/m.K",
        "Coefficient A": "-.03174",
        "Coefficient B": ".0002201",
        "Coefficient C": "-1.923E-07",
        "Coefficient D": "1.664E-10",
        "Coefficient E": NaN,
        "Coefficient F": NaN,
        "Coefficient G": NaN,
        "T range, from": "273 K",
        "T range, to": "1020 K"
    },
    "Themal Conductivity (Liquid)": {
        "Equation Name": "Polynomial Equation",
        "Equation": "THL = A + B*T + C*T^2 + D*T^3  where T in K and THL in W/m.K",
        "Coefficient A": ".2928",
        "Coefficient B": "-.0006945",
        "Coefficient C": "-2.039E-07",
        "Coefficient D": "0",
        "Coefficient E": NaN,
        "Coefficient F": NaN,
        "Coefficient G": NaN,
        "T range, from": "90 K",
        "T range, to": "293 K"
    },
    "Surface Tension": NaN,
    "Partial Molar Volume (VOLP)": NaN,
    "Solubility Parameters (SOLP)": "1.237517E+04 (J/cm^3)^0.5",
    "SRK accentric factor (WSRK)": "9.830000E-02",
    "COSTALD Characteristic Volume (VSTAR)": "1.458000E-01 m^3/kg-mol",
    "Rackett parameter (ZRA)": "2.808000E-01",
    "Aniline Point (ANP)": NaN,
    "H(formation,ideal gas)at 25 C": "-8.474000E+04 kJ/kg-mol",
    "G(formation,ideal gas) at 25 C": "-3.295000E+04 kJ/kg-mol",
    "Heat of Combustion, Gross form (HCB1)": "1.550423E+06 kJ/kg-mol",
    "Heat of Combustion, Net form (HCB2)": "1.418376E+06 kJ/kg-mol",
    "Van der Waals Volume (VDWV)": NaN,
    "Van der Waals Area (VDWA)": NaN,
    "UNIQUAC Ri Parameter (RI)": "1.800000E+00",
    "UNIQUAC Qi Parameter (QI)": "1.700000E+00",
    "Dipole Moment (DM)": "0.000000E+00 debye",
    "Radius of Gyration (GYRAD)": "1.831000E+00",
    "Liquid Density (DENL)": "1.822451E-02 g-mol/cm^3",
    "Temperature of DENL (TDENL)": "1.830000E+02 K",
    "Heat of Vaporizaiton (HVAP)": "1.470700E+04 kJ/kg-mol",
    "Temperature of HVAP (THVAP)": "1.846000E+02 K",
    "Surface Tension (SRF)": "2.116000E+01 dyn/cm",
    "Temperature of SRF (TSRF)": "1.532000E+02 K",
    "Dielectric Constant (DIEL)": NaN,
    "Temperature of DIEL (TDIEL)": NaN,
    "Refractive Index (RFI)": NaN,
    "Temperature of RFI (TRFI)": NaN,
    "Lower Flammability Limit(FLL)": "2.900000E+00 % in Air",
    "Upper Flammability Limit(FLU)": "1.300000E+01 % in Air",
    "Flash Point (Open Cup Method)": "1.381500E+02 K",
    "Flash Point (Closed Cup Method)": "1.381500E+02 K",
    "Autoignition Temperature (AIGT)": "7.775945E+02 K",
    "NFPA Rating (Health)": "1",
    "NFPA Rating (Fire)": "4",
    "NFPA Rating (Safety)": NaN,
    "Class": "Paraffinic Hydrocarbons",
    "Subclass": "n-Alkanes",
    "SMILES": "CC"
}