{
    "ID": "20",
    "Name": "N-EICOSANE",
    "Synonyms": "EICOSANE",
    "CAS No.": "112-95-8",
    "Formula": "C20H42",
    "Molecular Wt. (WT)": "2.82552E+02",
    "Normal Boiling Point Temp. (TB)": "6.16000E+02 K",
    "Freezing Point Temp. (TF)": "3.09900E+02 K",
    "Triple Point Temp. (TT)": NaN,
    "Triple Point Press. (PT)": NaN,
    "Critical Temperature. (TC)": "7.68000E+02 K",
    "Critical Pressure (PC)": "1.07000E+03 kPa",
    "Critical Volume (VC)": NaN,
    "Critical Compressibility (ZC)": NaN,
    "Accentric Factor (ACCF)": "9.07000E-01",
    "Vapor Pressure": {
        "Equation Name": "KDB Correlation Equation",
        "Equation": "ln(Pvp) = A*ln(T) + B/T + C + D*T^2 where Pvp in kPa, T in K",
        "Coefficient A": "-1.500086E+01",
        "Coefficient B": "-1.588312E+04",
        "Coefficient C": "1.257399E+02",
        "Coefficient D": "2.634113E-06",
        "Coefficient E": NaN,
        "Coefficient F": NaN,
        "Coefficient G": NaN,
        "T range, from": "309.59 K",
        "T range, to": "767.04 K"
    },
    "Heat Capacity (Ideal Gas)": {
        "Equation Name": "Polynomial Equation",
        "Equation": "Cp = A + B*T + C*T^2 + D*T^3 + E*T^4  where Cp in kJ/kg-mol , T in K",
        "Coefficient A": "2.173069E+02",
        "Coefficient B": "-1.513114E-02",
        "Coefficient C": "4.397073E-03",
        "Coefficient D": "-6.121159E-06",
        "Coefficient E": "2.571865E-09",
        "Coefficient F": NaN,
        "Coefficient G": NaN,
        "T range, from": NaN,
        "T range, to": NaN
    },
    "Heat Capacity (Liquid)": NaN,
    "Viscosity (Gas, Low P)": NaN,
    "Viscosity (Liquid)": NaN,
    "Themal Conductivity (Gas, Low P)": NaN,
    "Themal Conductivity (Liquid)": NaN,
    "Surface Tension": NaN,
    "Partial Molar Volume (VOLP)": "3.632300E-01 m^3/kg-mol",
    "Solubility Parameters (SOLP)": "1.654591E+04 (J/cm^3)^0.5",
    "SRK accentric factor (WSRK)": "9.239000E-01",
    "COSTALD Characteristic Volume (VSTAR)": "1.375400E+00 m^3/kg-mol",
    "Rackett parameter (ZRA)": "2.281000E-01",
    "Aniline Point (ANP)": NaN,
    "H(formation,ideal gas)at 25 C": "-4.561000E+05 kJ/kg-mol",
    "G(formation,ideal gas) at 25 C": "1.174000E+05 kJ/kg-mol",
    "Heat of Combustion, Gross form (HCB1)": NaN,
    "Heat of Combustion, Net form (HCB2)": NaN,
    "Van der Waals Volume (VDWV)": NaN,
    "Van der Waals Area (VDWA)": NaN,
    "UNIQUAC Ri Parameter (RI)": 13.9414,
    "UNIQUAC Qi Parameter (QI)": 11.416,
    "Dipole Moment (DM)": NaN,
    "Radius of Gyration (GYRAD)": NaN,
    "Liquid Density (DENL)": "2.742860E-03 g-mol/cm^3",
    "Temperature of DENL (TDENL)": "3.130000E+02 K",
    "Heat of Vaporizaiton (HVAP)": "5.748800E+04 kJ/kg-mol",
    "Temperature of HVAP (THVAP)": "6.170000E+02 K",
    "Surface Tension (SRF)": "2.638000E+01 dyn/cm",
    "Temperature of SRF (TSRF)": "3.232000E+02 K",
    "Dielectric Constant (DIEL)": NaN,
    "Temperature of DIEL (TDIEL)": NaN,
    "Refractive Index (RFI)": NaN,
    "Temperature of RFI (TRFI)": NaN,
    "Lower Flammability Limit(FLL)": NaN,
    "Upper Flammability Limit(FLU)": NaN,
    "Flash Point (Open Cup Method)": NaN,
    "Flash Point (Closed Cup Method)": NaN,
    "Autoignition Temperature (AIGT)": NaN,
    "NFPA Rating (Health)": NaN,
    "NFPA Rating (Fire)": 1.0,
    "NFPA Rating (Safety)": NaN,
    "Class": "Paraffinic Hydrocarbons",
    "Subclass": "n-Alkanes",
    "SMILES": "CCCCCCCCCCCCCCCCCCCC"
}