{
    "ID": "207",
    "Name": "4-METHYL-CIS-2-PENTENE",
    "Synonyms": "CIS-4-METHYL-2-PENTENE, (Z)-4-METHYL-2-PENTENE",
    "CAS No.": "691-38-3",
    "Formula": "C6H12",
    "Molecular Wt. (WT)": "8.41608E+01",
    "Normal Boiling Point Temp. (TB)": "3.29600E+02 K",
    "Freezing Point Temp. (TF)": "1.39000E+02 K",
    "Triple Point Temp. (TT)": NaN,
    "Triple Point Press. (PT)": NaN,
    "Critical Temperature. (TC)": "4.90000E+02 K",
    "Critical Pressure (PC)": "3.04000E+03 kPa",
    "Critical Volume (VC)": "3.60000E-01 m^3/kg-mol",
    "Critical Compressibility (ZC)": "2.68623E-01",
    "Accentric Factor (ACCF)": "2.90000E-01",
    "Vapor Pressure": {
        "Equation Name": "KDB Correlation Equation",
        "Equation": "ln(Pvp) = A*ln(T) + B/T + C + D*T^2 where Pvp in kPa, T in K",
        "Coefficient A": "-9.345976E+00",
        "Coefficient B": "-5.962551E+03",
        "Coefficient C": "7.597461E+01",
        "Coefficient D": "8.496246E-06",
        "Coefficient E": NaN,
        "Coefficient F": NaN,
        "Coefficient G": NaN,
        "T range, from": "138.30 K",
        "T range, to": "499.00 K"
    },
    "Heat Capacity (Ideal Gas)": {
        "Equation Name": "Polynomial Equation",
        "Equation": "Cp = A + B*T + C*T^2 + D*T^3 + E*T^4  where Cp in kJ/kg-mol , T in K",
        "Coefficient A": "-1.675000E+00",
        "Coefficient B": "5.376000E-01",
        "Coefficient C": "-3.044000E-04",
        "Coefficient D": "6.753E-08",
        "Coefficient E": "0",
        "Coefficient F": NaN,
        "Coefficient G": NaN,
        "T range, from": NaN,
        "T range, to": NaN
    },
    "Heat Capacity (Liquid)": NaN,
    "Viscosity (Gas, Low P)": NaN,
    "Viscosity (Liquid)": NaN,
    "Themal Conductivity (Gas, Low P)": NaN,
    "Themal Conductivity (Liquid)": NaN,
    "Surface Tension": NaN,
    "Partial Molar Volume (VOLP)": NaN,
    "Solubility Parameters (SOLP)": "1.454134E+04 (J/cm^3)^0.5",
    "SRK accentric factor (WSRK)": NaN,
    "COSTALD Characteristic Volume (VSTAR)": NaN,
    "Rackett parameter (ZRA)": NaN,
    "Aniline Point (ANP)": NaN,
    "H(formation,ideal gas)at 25 C": "-5.748000E+04 kJ/kg-mol",
    "G(formation,ideal gas) at 25 C": "8.219000E+04 kJ/kg-mol",
    "Heat of Combustion, Gross form (HCB1)": "3.989109E+06 kJ/kg-mol",
    "Heat of Combustion, Net form (HCB2)": "3.725015E+06 kJ/kg-mol",
    "Van der Waals Volume (VDWV)": NaN,
    "Van der Waals Area (VDWA)": NaN,
    "UNIQUAC Ri Parameter (RI)": NaN,
    "UNIQUAC Qi Parameter (QI)": NaN,
    "Dipole Moment (DM)": NaN,
    "Radius of Gyration (GYRAD)": NaN,
    "Liquid Density (DENL)": "7.949069E-03 g-mol/cm^3",
    "Temperature of DENL (TDENL)": "2.930000E+02 K",
    "Heat of Vaporizaiton (HVAP)": "2.757300E+04 kJ/kg-mol",
    "Temperature of HVAP (THVAP)": "3.296000E+02 K",
    "Surface Tension (SRF)": "1.652000E+01 dyn/cm",
    "Temperature of SRF (TSRF)": "2.982000E+02 K",
    "Dielectric Constant (DIEL)": NaN,
    "Temperature of DIEL (TDIEL)": NaN,
    "Refractive Index (RFI)": "1.384980E+00",
    "Temperature of RFI (TRFI)": "2.981500E+02 K",
    "Lower Flammability Limit(FLL)": NaN,
    "Upper Flammability Limit(FLU)": NaN,
    "Flash Point (Open Cup Method)": NaN,
    "Flash Point (Closed Cup Method)": NaN,
    "Autoignition Temperature (AIGT)": NaN,
    "NFPA Rating (Health)": 1.0,
    "NFPA Rating (Fire)": 3.0,
    "NFPA Rating (Safety)": NaN,
    "Class": "Unsaturated Hydrocarbons",
    "Subclass": "Alkenes",
    "SMILES": "C/C=C\\C(C)C"
}