{
    "ID": "208",
    "Name": "4-METHYL-TRANS-2-PENTENE",
    "Synonyms": "TRANS-4-METHYL-2-PENTENE, (E)-4-METHYL-2-PENTENE",
    "CAS No.": "674-76-0",
    "Formula": "C6H12",
    "Molecular Wt. (WT)": "8.41608E+01",
    "Normal Boiling Point Temp. (TB)": "3.31700E+02 K",
    "Freezing Point Temp. (TF)": "1.32000E+02 K",
    "Triple Point Temp. (TT)": NaN,
    "Triple Point Press. (PT)": NaN,
    "Critical Temperature. (TC)": "4.93000E+02 K",
    "Critical Pressure (PC)": "3.04000E+03 kPa",
    "Critical Volume (VC)": "3.60000E-01 m^3/kg-mol",
    "Critical Compressibility (ZC)": "2.66988E-01",
    "Accentric Factor (ACCF)": "2.90000E-01",
    "Vapor Pressure": {
        "Equation Name": "KDB Correlation Equation",
        "Equation": "ln(Pvp) = A*ln(T) + B/T + C + D*T^2 where Pvp in kPa, T in K",
        "Coefficient A": "-9.149722E+00",
        "Coefficient B": "-5.979718E+03",
        "Coefficient C": "7.485954E+01",
        "Coefficient D": "8.096777E-06",
        "Coefficient E": NaN,
        "Coefficient F": NaN,
        "Coefficient G": NaN,
        "T range, from": "132.35 K",
        "T range, to": "501.00 K"
    },
    "Heat Capacity (Ideal Gas)": {
        "Equation Name": "Polynomial Equation",
        "Equation": "Cp = A + B*T + C*T^2 + D*T^3 + E*T^4  where Cp in kJ/kg-mol , T in K",
        "Coefficient A": "1.263000E+01",
        "Coefficient B": "5.154000E-01",
        "Coefficient C": "-3.007000E-04",
        "Coefficient D": "7.327E-08",
        "Coefficient E": "0",
        "Coefficient F": NaN,
        "Coefficient G": NaN,
        "T range, from": NaN,
        "T range, to": NaN
    },
    "Heat Capacity (Liquid)": NaN,
    "Viscosity (Gas, Low P)": NaN,
    "Viscosity (Liquid)": NaN,
    "Themal Conductivity (Gas, Low P)": NaN,
    "Themal Conductivity (Liquid)": NaN,
    "Surface Tension": NaN,
    "Partial Molar Volume (VOLP)": NaN,
    "Solubility Parameters (SOLP)": "1.468452E+04 (J/cm^3)^0.5",
    "SRK accentric factor (WSRK)": NaN,
    "COSTALD Characteristic Volume (VSTAR)": NaN,
    "Rackett parameter (ZRA)": NaN,
    "Aniline Point (ANP)": NaN,
    "H(formation,ideal gas)at 25 C": "-6.150000E+04 kJ/kg-mol",
    "G(formation,ideal gas) at 25 C": "7.967000E+04 kJ/kg-mol",
    "Heat of Combustion, Gross form (HCB1)": "3.984591E+06 kJ/kg-mol",
    "Heat of Combustion, Net form (HCB2)": "3.720496E+06 kJ/kg-mol",
    "Van der Waals Volume (VDWV)": NaN,
    "Van der Waals Area (VDWA)": NaN,
    "UNIQUAC Ri Parameter (RI)": NaN,
    "UNIQUAC Qi Parameter (QI)": NaN,
    "Dipole Moment (DM)": NaN,
    "Radius of Gyration (GYRAD)": NaN,
    "Liquid Density (DENL)": "7.949069E-03 g-mol/cm^3",
    "Temperature of DENL (TDENL)": "2.930000E+02 K",
    "Heat of Vaporizaiton (HVAP)": "2.794900E+04 kJ/kg-mol",
    "Temperature of HVAP (THVAP)": "3.317000E+02 K",
    "Surface Tension (SRF)": "1.675000E+01 dyn/cm",
    "Temperature of SRF (TSRF)": "2.982000E+02 K",
    "Dielectric Constant (DIEL)": NaN,
    "Temperature of DIEL (TDIEL)": NaN,
    "Refractive Index (RFI)": "1.385830E+00",
    "Temperature of RFI (TRFI)": "2.981500E+02 K",
    "Lower Flammability Limit(FLL)": NaN,
    "Upper Flammability Limit(FLU)": NaN,
    "Flash Point (Open Cup Method)": NaN,
    "Flash Point (Closed Cup Method)": NaN,
    "Autoignition Temperature (AIGT)": NaN,
    "NFPA Rating (Health)": NaN,
    "NFPA Rating (Fire)": NaN,
    "NFPA Rating (Safety)": NaN,
    "Class": "Unsaturated Hydrocarbons",
    "Subclass": "Alkenes",
    "SMILES": "C/C=C/C(C)C"
}