{
    "ID": "210",
    "Name": "2,3-DIMETHYL-1-BUTENE",
    "Synonyms": NaN,
    "CAS No.": "563-78-0",
    "Formula": "C6H12",
    "Molecular Wt. (WT)": "8.41608E+01",
    "Normal Boiling Point Temp. (TB)": "3.28800E+02 K",
    "Freezing Point Temp. (TF)": "1.15900E+02 K",
    "Triple Point Temp. (TT)": NaN,
    "Triple Point Press. (PT)": NaN,
    "Critical Temperature. (TC)": "5.01000E+02 K",
    "Critical Pressure (PC)": "3.24000E+03 kPa",
    "Critical Volume (VC)": "3.43000E-01 m^3/kg-mol",
    "Critical Compressibility (ZC)": "2.66787E-01",
    "Accentric Factor (ACCF)": "2.21000E-01",
    "Vapor Pressure": {
        "Equation Name": "KDB Correlation Equation",
        "Equation": "ln(Pvp) = A*ln(T) + B/T + C + D*T^2 where Pvp in kPa, T in K",
        "Coefficient A": "-8.075793E+00",
        "Coefficient B": "-5.637796E+03",
        "Coefficient C": "6.782922E+01",
        "Coefficient D": "6.846170E-06",
        "Coefficient E": NaN,
        "Coefficient F": NaN,
        "Coefficient G": NaN,
        "T range, from": "115.89 K",
        "T range, to": "500.00 K"
    },
    "Heat Capacity (Ideal Gas)": {
        "Equation Name": "Polynomial Equation",
        "Equation": "Cp = A + B*T + C*T^2 + D*T^3 + E*T^4  where Cp in kJ/kg-mol , T in K",
        "Coefficient A": "-1.501050E+00",
        "Coefficient B": "5.323485E-01",
        "Coefficient C": "-3.021132E-04",
        "Coefficient D": "7.605896E-08",
        "Coefficient E": "-5.002797E-12",
        "Coefficient F": NaN,
        "Coefficient G": NaN,
        "T range, from": NaN,
        "T range, to": NaN
    },
    "Heat Capacity (Liquid)": NaN,
    "Viscosity (Gas, Low P)": NaN,
    "Viscosity (Liquid)": NaN,
    "Themal Conductivity (Gas, Low P)": NaN,
    "Themal Conductivity (Liquid)": NaN,
    "Surface Tension": NaN,
    "Partial Molar Volume (VOLP)": NaN,
    "Solubility Parameters (SOLP)": "1.473566E+04 (J/cm^3)^0.5",
    "SRK accentric factor (WSRK)": "2.242000E-01",
    "COSTALD Characteristic Volume (VSTAR)": "3.425000E-01 m^3/kg-mol",
    "Rackett parameter (ZRA)": NaN,
    "Aniline Point (ANP)": NaN,
    "H(formation,ideal gas)at 25 C": "-6.636000E+04 kJ/kg-mol",
    "G(formation,ideal gas) at 25 C": "7.909000E+04 kJ/kg-mol",
    "Heat of Combustion, Gross form (HCB1)": "3.981955E+06 kJ/kg-mol",
    "Heat of Combustion, Net form (HCB2)": "3.717861E+06 kJ/kg-mol",
    "Van der Waals Volume (VDWV)": NaN,
    "Van der Waals Area (VDWA)": NaN,
    "UNIQUAC Ri Parameter (RI)": NaN,
    "UNIQUAC Qi Parameter (QI)": NaN,
    "Dipole Moment (DM)": NaN,
    "Radius of Gyration (GYRAD)": NaN,
    "Liquid Density (DENL)": "8.056007E-03 g-mol/cm^3",
    "Temperature of DENL (TDENL)": "2.930000E+02 K",
    "Heat of Vaporizaiton (HVAP)": "2.740500E+04 kJ/kg-mol",
    "Temperature of HVAP (THVAP)": "3.288000E+02 K",
    "Surface Tension (SRF)": "1.689000E+01 dyn/cm",
    "Temperature of SRF (TSRF)": "2.982000E+02 K",
    "Dielectric Constant (DIEL)": NaN,
    "Temperature of DIEL (TDIEL)": NaN,
    "Refractive Index (RFI)": "1.387290E+00",
    "Temperature of RFI (TRFI)": "2.981500E+02 K",
    "Lower Flammability Limit(FLL)": NaN,
    "Upper Flammability Limit(FLU)": NaN,
    "Flash Point (Open Cup Method)": NaN,
    "Flash Point (Closed Cup Method)": NaN,
    "Autoignition Temperature (AIGT)": NaN,
    "NFPA Rating (Health)": NaN,
    "NFPA Rating (Fire)": 3.0,
    "NFPA Rating (Safety)": NaN,
    "Class": "Unsaturated Hydrocarbons",
    "Subclass": "Alkenes",
    "SMILES": "CC(C)C(=C)C"
}