{
    "ID": "211",
    "Name": "3,3-DIMETHYL-1-BUTENE",
    "Synonyms": "TERT-BUTYLETHENE, TERT-HEXENE, NEOHEXENE",
    "CAS No.": "558-37-2",
    "Formula": "C6H12",
    "Molecular Wt. (WT)": "8.41608E+01",
    "Normal Boiling Point Temp. (TB)": "3.14400E+02 K",
    "Freezing Point Temp. (TF)": "1.58000E+02 K",
    "Triple Point Temp. (TT)": NaN,
    "Triple Point Press. (PT)": NaN,
    "Critical Temperature. (TC)": "4.90000E+02 K",
    "Critical Pressure (PC)": "3.25000E+03 kPa",
    "Critical Volume (VC)": "3.40000E-01 m^3/kg-mol",
    "Critical Compressibility (ZC)": "2.71225E-01",
    "Accentric Factor (ACCF)": "1.21000E-01",
    "Vapor Pressure": {
        "Equation Name": "KDB Correlation Equation",
        "Equation": "ln(Pvp) = A*ln(T) + B/T + C + D*T^2 where Pvp in kPa, T in K",
        "Coefficient A": "-1.031905E+01",
        "Coefficient B": "-5.853393E+03",
        "Coefficient C": "8.158330E+01",
        "Coefficient D": "1.009760E-05",
        "Coefficient E": NaN,
        "Coefficient F": NaN,
        "Coefficient G": NaN,
        "T range, from": "157.95 K",
        "T range, to": "490.00 K"
    },
    "Heat Capacity (Ideal Gas)": {
        "Equation Name": "Polynomial Equation",
        "Equation": "Cp = A + B*T + C*T^2 + D*T^3 + E*T^4  where Cp in kJ/kg-mol , T in K",
        "Coefficient A": "-1.501050E+00",
        "Coefficient B": "5.323485E-01",
        "Coefficient C": "-3.021132E-04",
        "Coefficient D": "7.605896E-08",
        "Coefficient E": "-5.002797E-12",
        "Coefficient F": NaN,
        "Coefficient G": NaN,
        "T range, from": NaN,
        "T range, to": NaN
    },
    "Heat Capacity (Liquid)": NaN,
    "Viscosity (Gas, Low P)": NaN,
    "Viscosity (Liquid)": NaN,
    "Themal Conductivity (Gas, Low P)": NaN,
    "Themal Conductivity (Liquid)": NaN,
    "Surface Tension": NaN,
    "Partial Molar Volume (VOLP)": NaN,
    "Solubility Parameters (SOLP)": "1.385610E+04 (J/cm^3)^0.5",
    "SRK accentric factor (WSRK)": "1.499000E-01",
    "COSTALD Characteristic Volume (VSTAR)": "3.466000E-01 m^3/kg-mol",
    "Rackett parameter (ZRA)": NaN,
    "Aniline Point (ANP)": NaN,
    "H(formation,ideal gas)at 25 C": "-6.155000E+04 kJ/kg-mol",
    "G(formation,ideal gas) at 25 C": "9.821999E+04 kJ/kg-mol",
    "Heat of Combustion, Gross form (HCB1)": "3.988649E+06 kJ/kg-mol",
    "Heat of Combustion, Net form (HCB2)": "3.724555E+06 kJ/kg-mol",
    "Van der Waals Volume (VDWV)": NaN,
    "Van der Waals Area (VDWA)": NaN,
    "UNIQUAC Ri Parameter (RI)": NaN,
    "UNIQUAC Qi Parameter (QI)": NaN,
    "Dipole Moment (DM)": NaN,
    "Radius of Gyration (GYRAD)": NaN,
    "Liquid Density (DENL)": "7.758957E-03 g-mol/cm^3",
    "Temperature of DENL (TDENL)": "2.930000E+02 K",
    "Heat of Vaporizaiton (HVAP)": "2.564800E+04 kJ/kg-mol",
    "Temperature of HVAP (THVAP)": "3.144000E+02 K",
    "Surface Tension (SRF)": "1.489000E+01 dyn/cm",
    "Temperature of SRF (TSRF)": "2.982000E+02 K",
    "Dielectric Constant (DIEL)": NaN,
    "Temperature of DIEL (TDIEL)": NaN,
    "Refractive Index (RFI)": "1.373130E+00",
    "Temperature of RFI (TRFI)": "2.981500E+02 K",
    "Lower Flammability Limit(FLL)": NaN,
    "Upper Flammability Limit(FLU)": NaN,
    "Flash Point (Open Cup Method)": NaN,
    "Flash Point (Closed Cup Method)": NaN,
    "Autoignition Temperature (AIGT)": NaN,
    "NFPA Rating (Health)": NaN,
    "NFPA Rating (Fire)": NaN,
    "NFPA Rating (Safety)": NaN,
    "Class": "Unsaturated Hydrocarbons",
    "Subclass": "Alkenes",
    "SMILES": "CC(C)(C)C=C"
}