{
    "ID": "212",
    "Name": "2,3-DIMETHYL-2-BUTENE",
    "Synonyms": "TETRAMETHYLETHYLENE, 1,1,2,2-TETRAMETHYLETHYLENE",
    "CAS No.": "563-79-1",
    "Formula": "C6H12",
    "Molecular Wt. (WT)": "8.41608E+01",
    "Normal Boiling Point Temp. (TB)": "3.46400E+02 K",
    "Freezing Point Temp. (TF)": "1.98900E+02 K",
    "Triple Point Temp. (TT)": NaN,
    "Triple Point Press. (PT)": NaN,
    "Critical Temperature. (TC)": "5.24000E+02 K",
    "Critical Pressure (PC)": "3.36000E+03 kPa",
    "Critical Volume (VC)": "3.51000E-01 m^3/kg-mol",
    "Critical Compressibility (ZC)": "2.70694E-01",
    "Accentric Factor (ACCF)": "2.39000E-01",
    "Vapor Pressure": {
        "Equation Name": "KDB Correlation Equation",
        "Equation": "ln(Pvp) = A*ln(T) + B/T + C + D*T^2 where Pvp in kPa, T in K",
        "Coefficient A": "-7.860737E+00",
        "Coefficient B": "-6.035845E+03",
        "Coefficient C": "6.737703E+01",
        "Coefficient D": "5.285091E-06",
        "Coefficient E": NaN,
        "Coefficient F": NaN,
        "Coefficient G": NaN,
        "T range, from": "198.92 K",
        "T range, to": "524.00 K"
    },
    "Heat Capacity (Ideal Gas)": {
        "Equation Name": "Polynomial Equation",
        "Equation": "Cp = A + B*T + C*T^2 + D*T^3 + E*T^4  where Cp in kJ/kg-mol , T in K",
        "Coefficient A": "-7.977412E-01",
        "Coefficient B": "4.902447E-01",
        "Coefficient C": "-2.173667E-04",
        "Coefficient D": "1.663366E-08",
        "Coefficient E": "7.008909E-12",
        "Coefficient F": NaN,
        "Coefficient G": NaN,
        "T range, from": NaN,
        "T range, to": NaN
    },
    "Heat Capacity (Liquid)": NaN,
    "Viscosity (Gas, Low P)": NaN,
    "Viscosity (Liquid)": NaN,
    "Themal Conductivity (Gas, Low P)": NaN,
    "Themal Conductivity (Liquid)": NaN,
    "Surface Tension": NaN,
    "Partial Molar Volume (VOLP)": NaN,
    "Solubility Parameters (SOLP)": "1.578704E+04 (J/cm^3)^0.5",
    "SRK accentric factor (WSRK)": NaN,
    "COSTALD Characteristic Volume (VSTAR)": NaN,
    "Rackett parameter (ZRA)": NaN,
    "Aniline Point (ANP)": NaN,
    "H(formation,ideal gas)at 25 C": "-6.984000E+04 kJ/kg-mol",
    "G(formation,ideal gas) at 25 C": "7.591000E+04 kJ/kg-mol",
    "Heat of Combustion, Gross form (HCB1)": "3.974716E+06 kJ/kg-mol",
    "Heat of Combustion, Net form (HCB2)": "3.710622E+06 kJ/kg-mol",
    "Van der Waals Volume (VDWV)": NaN,
    "Van der Waals Area (VDWA)": NaN,
    "UNIQUAC Ri Parameter (RI)": NaN,
    "UNIQUAC Qi Parameter (QI)": NaN,
    "Dipole Moment (DM)": NaN,
    "Radius of Gyration (GYRAD)": NaN,
    "Liquid Density (DENL)": "8.412468E-03 g-mol/cm^3",
    "Temperature of DENL (TDENL)": "2.930000E+02 K",
    "Heat of Vaporizaiton (HVAP)": "2.963500E+04 kJ/kg-mol",
    "Temperature of HVAP (THVAP)": "3.464000E+02 K",
    "Surface Tension (SRF)": "1.973000E+01 dyn/cm",
    "Temperature of SRF (TSRF)": "2.982000E+02 K",
    "Dielectric Constant (DIEL)": NaN,
    "Temperature of DIEL (TDIEL)": NaN,
    "Refractive Index (RFI)": "1.409520E+00",
    "Temperature of RFI (TRFI)": "2.981500E+02 K",
    "Lower Flammability Limit(FLL)": NaN,
    "Upper Flammability Limit(FLU)": NaN,
    "Flash Point (Open Cup Method)": NaN,
    "Flash Point (Closed Cup Method)": NaN,
    "Autoignition Temperature (AIGT)": NaN,
    "NFPA Rating (Health)": NaN,
    "NFPA Rating (Fire)": 3.0,
    "NFPA Rating (Safety)": NaN,
    "Class": "Unsaturated Hydrocarbons",
    "Subclass": "Alkenes",
    "SMILES": "CC(=C(C)C)C"
}