{
    "ID": "213",
    "Name": "1-HEPTENE",
    "Synonyms": "N-HEPT-1-ENE, HEPTYLENE",
    "CAS No.": "592-76-7",
    "Formula": "C7H14",
    "Molecular Wt. (WT)": "9.81876E+01",
    "Normal Boiling Point Temp. (TB)": "3.66790E+02 K",
    "Freezing Point Temp. (TF)": "1.53400E+02 K",
    "Triple Point Temp. (TT)": NaN,
    "Triple Point Press. (PT)": NaN,
    "Critical Temperature. (TC)": "5.37300E+02 K",
    "Critical Pressure (PC)": "2.92000E+03 kPa",
    "Critical Volume (VC)": "4.09000E-01 m^3/kg-mol",
    "Critical Compressibility (ZC)": "2.67333E-01",
    "Accentric Factor (ACCF)": "3.58000E-01",
    "Vapor Pressure": {
        "Equation Name": "KDB Correlation Equation",
        "Equation": "ln(Pvp) = A*ln(T) + B/T + C + D*T^2 where Pvp in kPa, T in K",
        "Coefficient A": "-1.053630E+01",
        "Coefficient B": "-7.032862E+03",
        "Coefficient C": "8.491456E+01",
        "Coefficient D": "8.194594E-06",
        "Coefficient E": NaN,
        "Coefficient F": NaN,
        "Coefficient G": NaN,
        "T range, from": "154.27 K",
        "T range, to": "537.29 K"
    },
    "Heat Capacity (Ideal Gas)": {
        "Equation Name": "Polynomial Equation",
        "Equation": "Cp = A + B*T + C*T^2 + D*T^3 + E*T^4  where Cp in kJ/kg-mol , T in K",
        "Coefficient A": "2.894044E+01",
        "Coefficient B": "4.001303E-01",
        "Coefficient C": "1.934744E-04",
        "Coefficient D": "-4.419952E-07",
        "Coefficient E": "1.662045E-10",
        "Coefficient F": NaN,
        "Coefficient G": NaN,
        "T range, from": NaN,
        "T range, to": NaN
    },
    "Heat Capacity (Liquid)": NaN,
    "Viscosity (Gas, Low P)": NaN,
    "Viscosity (Liquid)": {
        "Equation Name": "Andrade Equation",
        "Equation": "ln (VISL) = A + B/ T  where T in K and VISL in cP.",
        "Coefficient A": "-3.961",
        "Coefficient B": "848.9",
        "Coefficient C": "0",
        "Coefficient D": "0",
        "Coefficient E": NaN,
        "Coefficient F": NaN,
        "Coefficient G": NaN,
        "T range, from": "273.15 K",
        "T range, to": "373.15 K"
    },
    "Themal Conductivity (Gas, Low P)": NaN,
    "Themal Conductivity (Liquid)": NaN,
    "Surface Tension": NaN,
    "Partial Molar Volume (VOLP)": "1.402700E-01 m^3/kg-mol",
    "Solubility Parameters (SOLP)": "1.530430E+04 (J/cm^3)^0.5",
    "SRK accentric factor (WSRK)": "3.639000E-01",
    "COSTALD Characteristic Volume (VSTAR)": "4.113000E-01 m^3/kg-mol",
    "Rackett parameter (ZRA)": "2.611000E-01",
    "Aniline Point (ANP)": "3.003500E+02 K",
    "H(formation,ideal gas)at 25 C": "-6.234000E+04 kJ/kg-mol",
    "G(formation,ideal gas) at 25 C": "9.588000E+04 kJ/kg-mol",
    "Heat of Combustion, Gross form (HCB1)": "4.658340E+06 kJ/kg-mol",
    "Heat of Combustion, Net form (HCB2)": "4.350272E+06 kJ/kg-mol",
    "Van der Waals Volume (VDWV)": NaN,
    "Van der Waals Area (VDWA)": NaN,
    "UNIQUAC Ri Parameter (RI)": "4.944100E+00",
    "UNIQUAC Qi Parameter (QI)": "4.184000E+00",
    "Dipole Moment (DM)": "3.000000E-01 debye",
    "Radius of Gyration (GYRAD)": NaN,
    "Liquid Density (DENL)": "7.098656E-03 g-mol/cm^3",
    "Temperature of DENL (TDENL)": "2.930000E+02 K",
    "Heat of Vaporizaiton (HVAP)": "3.108700E+04 kJ/kg-mol",
    "Temperature of HVAP (THVAP)": "3.668000E+02 K",
    "Surface Tension (SRF)": "1.980000E+01 dyn/cm",
    "Temperature of SRF (TSRF)": "2.982000E+02 K",
    "Dielectric Constant (DIEL)": NaN,
    "Temperature of DIEL (TDIEL)": NaN,
    "Refractive Index (RFI)": "1.397130E+00",
    "Temperature of RFI (TRFI)": "2.981500E+02 K",
    "Lower Flammability Limit(FLL)": "1.000000E+00 % in Air",
    "Upper Flammability Limit(FLU)": NaN,
    "Flash Point (Open Cup Method)": "2.692611E+02 K",
    "Flash Point (Closed Cup Method)": NaN,
    "Autoignition Temperature (AIGT)": "5.331500E+02 K",
    "NFPA Rating (Health)": NaN,
    "NFPA Rating (Fire)": NaN,
    "NFPA Rating (Safety)": NaN,
    "Class": "Unsaturated Hydrocarbons",
    "Subclass": "Alkenes",
    "SMILES": "CCCCCC=C"
}