{
    "ID": "249",
    "Name": "1-OCTENE",
    "Synonyms": "CAPRYLENE, N-1-OCTENE",
    "CAS No.": "111-66-0",
    "Formula": "C8H16",
    "Molecular Wt. (WT)": "1.12214E+02",
    "Normal Boiling Point Temp. (TB)": "3.94440E+02 K",
    "Freezing Point Temp. (TF)": "1.71400E+02 K",
    "Triple Point Temp. (TT)": NaN,
    "Triple Point Press. (PT)": NaN,
    "Critical Temperature. (TC)": "5.67000E+02 K",
    "Critical Pressure (PC)": "2.68000E+03 kPa",
    "Critical Volume (VC)": "4.68000E-01 m^3/kg-mol",
    "Critical Compressibility (ZC)": "2.66049E-01",
    "Accentric Factor (ACCF)": "3.86000E-01",
    "Vapor Pressure": {
        "Equation Name": "KDB Correlation Equation",
        "Equation": "ln(Pvp) = A*ln(T) + B/T + C + D*T^2 where Pvp in kPa, T in K",
        "Coefficient A": "-1.222144E+01",
        "Coefficient B": "-8.074859E+03",
        "Coefficient C": "9.678234E+01",
        "Coefficient D": "8.734739E-06",
        "Coefficient E": NaN,
        "Coefficient F": NaN,
        "Coefficient G": NaN,
        "T range, from": "171.45 K",
        "T range, to": "566.60 K"
    },
    "Heat Capacity (Ideal Gas)": {
        "Equation Name": "Polynomial Equation",
        "Equation": "Cp = A + B*T + C*T^2 + D*T^3 + E*T^4  where Cp in kJ/kg-mol , T in K",
        "Coefficient A": "3.316781E+01",
        "Coefficient B": "4.544419E-01",
        "Coefficient C": "2.476956E-04",
        "Coefficient D": "-5.424566E-07",
        "Coefficient E": "2.041114E-10",
        "Coefficient F": NaN,
        "Coefficient G": NaN,
        "T range, from": NaN,
        "T range, to": NaN
    },
    "Heat Capacity (Liquid)": NaN,
    "Viscosity (Gas, Low P)": NaN,
    "Viscosity (Liquid)": {
        "Equation Name": "Andrade Equation",
        "Equation": "ln (VISL) = A + B/ T  where T in K and VISL in cP.",
        "Coefficient A": "-4.058",
        "Coefficient B": "964.4",
        "Coefficient C": "0",
        "Coefficient D": "0",
        "Coefficient E": NaN,
        "Coefficient F": NaN,
        "Coefficient G": NaN,
        "T range, from": "273.15 K",
        "T range, to": "398.15 K"
    },
    "Themal Conductivity (Gas, Low P)": NaN,
    "Themal Conductivity (Liquid)": NaN,
    "Surface Tension": NaN,
    "Partial Molar Volume (VOLP)": "1.578600E-01 m^3/kg-mol",
    "Solubility Parameters (SOLP)": "1.546794E+04 (J/cm^3)^0.5",
    "SRK accentric factor (WSRK)": "3.876000E-01",
    "COSTALD Characteristic Volume (VSTAR)": "4.710000E-01 m^3/kg-mol",
    "Rackett parameter (ZRA)": "2.600000E-01",
    "Aniline Point (ANP)": "3.056500E+02 K",
    "H(formation,ideal gas)at 25 C": "-8.298000E+04 kJ/kg-mol",
    "G(formation,ideal gas) at 25 C": "1.043000E+05 kJ/kg-mol",
    "Heat of Combustion, Gross form (HCB1)": "5.312927E+06 kJ/kg-mol",
    "Heat of Combustion, Net form (HCB2)": "4.960844E+06 kJ/kg-mol",
    "Van der Waals Volume (VDWV)": NaN,
    "Van der Waals Area (VDWA)": NaN,
    "UNIQUAC Ri Parameter (RI)": "5.618500E+00",
    "UNIQUAC Qi Parameter (QI)": "4.724000E+00",
    "Dipole Moment (DM)": "3.000000E-01 debye",
    "Radius of Gyration (GYRAD)": NaN,
    "Liquid Density (DENL)": "6.371731E-03 g-mol/cm^3",
    "Temperature of DENL (TDENL)": "2.930000E+02 K",
    "Heat of Vaporizaiton (HVAP)": "3.376500E+04 kJ/kg-mol",
    "Temperature of HVAP (THVAP)": "3.952000E+02 K",
    "Surface Tension (SRF)": "2.128000E+01 dyn/cm",
    "Temperature of SRF (TSRF)": "2.982000E+02 K",
    "Dielectric Constant (DIEL)": NaN,
    "Temperature of DIEL (TDIEL)": NaN,
    "Refractive Index (RFI)": "1.406200E+00",
    "Temperature of RFI (TRFI)": "2.981500E+02 K",
    "Lower Flammability Limit(FLL)": "9.000000E-01 % in Air",
    "Upper Flammability Limit(FLU)": NaN,
    "Flash Point (Open Cup Method)": NaN,
    "Flash Point (Closed Cup Method)": "2.942611E+02 K",
    "Autoignition Temperature (AIGT)": "5.292611E+02 K",
    "NFPA Rating (Health)": "1",
    "NFPA Rating (Fire)": "3",
    "NFPA Rating (Safety)": NaN,
    "Class": "Unsaturated Hydrocarbons",
    "Subclass": "Alkenes",
    "SMILES": "CCCCCCC=C"
}