{
    "ID": "3",
    "Name": "PROPANE",
    "Synonyms": "N-PROPANE, DIMETHYLMETHANE, PROPYL HYDRIDE",
    "CAS No.": "74-98-6",
    "Formula": "C3H8",
    "Molecular Wt. (WT)": "4.40962E+01",
    "Normal Boiling Point Temp. (TB)": "2.31000E+02 K",
    "Freezing Point Temp. (TF)": "8.54600E+01 K",
    "Triple Point Temp. (TT)": "8.55200E+01 K",
    "Triple Point Press. (PT)": NaN,
    "Critical Temperature. (TC)": "3.69830E+02 K",
    "Critical Pressure (PC)": "4.24800E+03 kPa",
    "Critical Volume (VC)": "2.00000E-01 m^3/kg-mol",
    "Critical Compressibility (ZC)": "2.76297E-01",
    "Accentric Factor (ACCF)": "1.53000E-01",
    "Vapor Pressure": {
        "Equation Name": "KDB Correlation Equation",
        "Equation": "ln(Pvp) = A*ln(T) + B/T + C + D*T^2 where Pvp in kPa, T in K",
        "Coefficient A": "-5.395526E+00",
        "Coefficient B": "-3.383994E+03",
        "Coefficient C": "4.814260E+01",
        "Coefficient D": "9.132115E-06",
        "Coefficient E": NaN,
        "Coefficient F": NaN,
        "Coefficient G": NaN,
        "T range, from": "85.46 K",
        "T range, to": "369.82 K"
    },
    "Heat Capacity (Ideal Gas)": {
        "Equation Name": "Polynomial Equation",
        "Equation": "Cp = A + B*T + C*T^2 + D*T^3 + E*T^4  where Cp in kJ/kg-mol , T in K",
        "Coefficient A": "2.959520E+01",
        "Coefficient B": "8.379912E-02",
        "Coefficient C": "3.255759E-04",
        "Coefficient D": "-3.957572E-07",
        "Coefficient E": "1.312889E-10",
        "Coefficient F": NaN,
        "Coefficient G": NaN,
        "T range, from": NaN,
        "T range, to": NaN
    },
    "Heat Capacity (Liquid)": {
        "Equation Name": "Polynomial Equation",
        "Equation": "Cp = A + B*T + C*T^2 + D*T^3  where T in K and Cp in kJ/kg-mol.K",
        "Coefficient A": "61.3642",
        "Coefficient B": ".4302505",
        "Coefficient C": "-.0024649",
        "Coefficient D": "5.564475E-06",
        "Coefficient E": NaN,
        "Coefficient F": NaN,
        "Coefficient G": NaN,
        "T range, from": "85.45 K",
        "T range, to": "353.15 K"
    },
    "Viscosity (Gas, Low P)": {
        "Equation Name": "Polynomial Equation",
        "Equation": "VISG = A + B*T + C*T^2 where T in K and VISG in cP",
        "Coefficient A": ".0004912",
        "Coefficient B": "2.712E-05",
        "Coefficient C": "-3.806E-09",
        "Coefficient D": "0",
        "Coefficient E": NaN,
        "Coefficient F": NaN,
        "Coefficient G": NaN,
        "T range, from": "193.15 K",
        "T range, to": "1273.15 K"
    },
    "Viscosity (Liquid)": {
        "Equation Name": "Quasipolynomial Equation",
        "Equation": "ln (VISL) = A + B/T + C*T + D*T^2  where T in K and VISL in cP.",
        "Coefficient A": "-7.764",
        "Coefficient B": "721.9",
        "Coefficient C": ".02381",
        "Coefficient D": "-4.665E-05",
        "Coefficient E": NaN,
        "Coefficient F": NaN,
        "Coefficient G": NaN,
        "T range, from": "86.14999 K",
        "T range, to": "369.15 K"
    },
    "Themal Conductivity (Gas, Low P)": {
        "Equation Name": "Polynomial Equation",
        "Equation": "THG = A + B*T + C*T^2 + D*T^3  where T in K and THG in W/m.K",
        "Coefficient A": ".001858",
        "Coefficient B": "-4.698E-06",
        "Coefficient C": "2.177E-07",
        "Coefficient D": "-8.409001E-11",
        "Coefficient E": NaN,
        "Coefficient F": NaN,
        "Coefficient G": NaN,
        "T range, from": "273 K",
        "T range, to": "1270 K"
    },
    "Themal Conductivity (Liquid)": {
        "Equation Name": "Polynomial Equation",
        "Equation": "THL = A + B*T + C*T^2 + D*T^3  where T in K and THL in W/m.K",
        "Coefficient A": ".2611",
        "Coefficient B": "-.0005309",
        "Coefficient C": "-8.876E-08",
        "Coefficient D": "0",
        "Coefficient E": NaN,
        "Coefficient F": NaN,
        "Coefficient G": NaN,
        "T range, from": "85 K",
        "T range, to": "353 K"
    },
    "Surface Tension": NaN,
    "Partial Molar Volume (VOLP)": NaN,
    "Solubility Parameters (SOLP)": "1.309109E+04 (J/cm^3)^0.5",
    "SRK accentric factor (WSRK)": "1.532000E-01",
    "COSTALD Characteristic Volume (VSTAR)": "2.001000E-01 m^3/kg-mol",
    "Rackett parameter (ZRA)": "2.766000E-01",
    "Aniline Point (ANP)": NaN,
    "H(formation,ideal gas)at 25 C": "-1.039000E+05 kJ/kg-mol",
    "G(formation,ideal gas) at 25 C": "-2.349000E+04 kJ/kg-mol",
    "Heat of Combustion, Gross form (HCB1)": "2.203420E+06 kJ/kg-mol",
    "Heat of Combustion, Net form (HCB2)": "2.027399E+06 kJ/kg-mol",
    "Van der Waals Volume (VDWV)": NaN,
    "Van der Waals Area (VDWA)": NaN,
    "UNIQUAC Ri Parameter (RI)": "2.480000E+00",
    "UNIQUAC Qi Parameter (QI)": "2.240000E+00",
    "Dipole Moment (DM)": "0.000000E+00 debye",
    "Radius of Gyration (GYRAD)": "2.426000E+00",
    "Liquid Density (DENL)": "1.319842E-02 g-mol/cm^3",
    "Temperature of DENL (TDENL)": "2.310000E+02 K",
    "Heat of Vaporizaiton (HVAP)": "1.877400E+04 kJ/kg-mol",
    "Temperature of HVAP (THVAP)": "2.311000E+02 K",
    "Surface Tension (SRF)": "1.359000E+01 dyn/cm",
    "Temperature of SRF (TSRF)": "2.232000E+02 K",
    "Dielectric Constant (DIEL)": NaN,
    "Temperature of DIEL (TDIEL)": NaN,
    "Refractive Index (RFI)": NaN,
    "Temperature of RFI (TRFI)": NaN,
    "Lower Flammability Limit(FLL)": "2.100000E+00 % in Air",
    "Upper Flammability Limit(FLU)": "9.500000E+00 % in Air",
    "Flash Point (Open Cup Method)": "1.687056E+02 K",
    "Flash Point (Closed Cup Method)": NaN,
    "Autoignition Temperature (AIGT)": "7.231500E+02 K",
    "NFPA Rating (Health)": "1",
    "NFPA Rating (Fire)": "4",
    "NFPA Rating (Safety)": NaN,
    "Class": "Paraffinic Hydrocarbons",
    "Subclass": "n-Alkanes",
    "SMILES": "CCC"
}