{
    "ID": "32",
    "Name": "ISOBUTANE",
    "Synonyms": "2-METHYLPROPANE, TRIMETHYLMETHANE, 1,1-DIMETHYLETHANE",
    "CAS No.": "75-28-5",
    "Formula": "C4H10",
    "Molecular Wt. (WT)": "5.81230E+01",
    "Normal Boiling Point Temp. (TB)": "2.61420E+02 K",
    "Freezing Point Temp. (TF)": "1.34800E+02 K",
    "Triple Point Temp. (TT)": "1.13550E+02 K",
    "Triple Point Press. (PT)": NaN,
    "Critical Temperature. (TC)": "4.07800E+02 K",
    "Critical Pressure (PC)": "3.60400E+03 kPa",
    "Critical Volume (VC)": "2.59000E-01 m^3/kg-mol",
    "Critical Compressibility (ZC)": "2.75296E-01",
    "Accentric Factor (ACCF)": "1.83000E-01",
    "Vapor Pressure": {
        "Equation Name": "KDB Correlation Equation",
        "Equation": "ln(Pvp) = A*ln(T) + B/T + C + D*T^2 where Pvp in kPa, T in K",
        "Coefficient A": "-9.416723E+00",
        "Coefficient B": "-4.577132E+03",
        "Coefficient C": "7.351351E+01",
        "Coefficient D": "1.514279E-05",
        "Coefficient E": NaN,
        "Coefficient F": NaN,
        "Coefficient G": NaN,
        "T range, from": "113.54 K",
        "T range, to": "408.14 K"
    },
    "Heat Capacity (Ideal Gas)": {
        "Equation Name": "Polynomial Equation",
        "Equation": "Cp = A + B*T + C*T^2 + D*T^3 + E*T^4  where Cp in kJ/kg-mol , T in K",
        "Coefficient A": "2.410827E+01",
        "Coefficient B": "2.091435E-01",
        "Coefficient C": "2.166468E-04",
        "Coefficient D": "-3.372285E-07",
        "Coefficient E": "1.161865E-10",
        "Coefficient F": NaN,
        "Coefficient G": NaN,
        "T range, from": NaN,
        "T range, to": NaN
    },
    "Heat Capacity (Liquid)": NaN,
    "Viscosity (Gas, Low P)": NaN,
    "Viscosity (Liquid)": NaN,
    "Themal Conductivity (Gas, Low P)": NaN,
    "Themal Conductivity (Liquid)": NaN,
    "Surface Tension": NaN,
    "Partial Molar Volume (VOLP)": "1.043500E-01 m^3/kg-mol",
    "Solubility Parameters (SOLP)": "1.376610E+04 (J/cm^3)^0.5",
    "SRK accentric factor (WSRK)": "1.825000E-01",
    "COSTALD Characteristic Volume (VSTAR)": "2.568000E-01 m^3/kg-mol",
    "Rackett parameter (ZRA)": "2.754000E-01",
    "Aniline Point (ANP)": "3.807500E+02 K",
    "H(formation,ideal gas)at 25 C": "-1.346000E+05 kJ/kg-mol",
    "G(formation,ideal gas) at 25 C": "-2.090000E+04 kJ/kg-mol",
    "Heat of Combustion, Gross form (HCB1)": "2.848635E+06 kJ/kg-mol",
    "Heat of Combustion, Net form (HCB2)": "2.628598E+06 kJ/kg-mol",
    "Van der Waals Volume (VDWV)": NaN,
    "Van der Waals Area (VDWA)": NaN,
    "UNIQUAC Ri Parameter (RI)": "3.150200E+00",
    "UNIQUAC Qi Parameter (QI)": "2.772000E+00",
    "Dipole Moment (DM)": "1.000000E-01 debye",
    "Radius of Gyration (GYRAD)": "2.896000E+00",
    "Liquid Density (DENL)": "9.583125E-03 g-mol/cm^3",
    "Temperature of DENL (TDENL)": "2.930000E+02 K",
    "Heat of Vaporizaiton (HVAP)": "2.129700E+04 kJ/kg-mol",
    "Temperature of HVAP (THVAP)": "2.615000E+02 K",
    "Surface Tension (SRF)": "1.030000E+01 dyn/cm",
    "Temperature of SRF (TSRF)": "2.932000E+02 K",
    "Dielectric Constant (DIEL)": NaN,
    "Temperature of DIEL (TDIEL)": NaN,
    "Refractive Index (RFI)": NaN,
    "Temperature of RFI (TRFI)": NaN,
    "Lower Flammability Limit(FLL)": "1.800000E+00 % in Air",
    "Upper Flammability Limit(FLU)": "8.400000E+00 % in Air",
    "Flash Point (Open Cup Method)": "1.903722E+02 K",
    "Flash Point (Closed Cup Method)": NaN,
    "Autoignition Temperature (AIGT)": "7.498167E+02 K",
    "NFPA Rating (Health)": "1",
    "NFPA Rating (Fire)": "4",
    "NFPA Rating (Safety)": NaN,
    "Class": "Paraffinic Hydrocarbons",
    "Subclass": "Branched Alkanes",
    "SMILES": "CC(C)C"
}