{
    "ID": "33",
    "Name": "ISOPENTANE",
    "Synonyms": "2-METHYLBUTANE, 1,1,2-TRIMETHYLETHANE, ETHYLDIMETHYLMETHANE",
    "CAS No.": "78-78-4",
    "Formula": "C5H12",
    "Molecular Wt. (WT)": "7.21498E+01",
    "Normal Boiling Point Temp. (TB)": "3.01030E+02 K",
    "Freezing Point Temp. (TF)": "1.13200E+02 K",
    "Triple Point Temp. (TT)": "1.13250E+02 K",
    "Triple Point Press. (PT)": NaN,
    "Critical Temperature. (TC)": "4.60400E+02 K",
    "Critical Pressure (PC)": "3.38000E+03 kPa",
    "Critical Volume (VC)": "3.06000E-01 m^3/kg-mol",
    "Critical Compressibility (ZC)": "2.70188E-01",
    "Accentric Factor (ACCF)": "2.27000E-01",
    "Vapor Pressure": {
        "Equation Name": "KDB Correlation Equation",
        "Equation": "ln(Pvp) = A*ln(T) + B/T + C + D*T^2 where Pvp in kPa, T in K",
        "Coefficient A": "-7.729326E+00",
        "Coefficient B": "-4.987027E+03",
        "Coefficient C": "6.451402E+01",
        "Coefficient D": "8.654219E-06",
        "Coefficient E": NaN,
        "Coefficient F": NaN,
        "Coefficient G": NaN,
        "T range, from": "113.25 K",
        "T range, to": "460.43 K"
    },
    "Heat Capacity (Ideal Gas)": {
        "Equation Name": "Polynomial Equation",
        "Equation": "Cp = A + B*T + C*T^2 + D*T^3 + E*T^4  where Cp in kJ/kg-mol , T in K",
        "Coefficient A": "4.816846E+00",
        "Coefficient B": "4.158981E-01",
        "Coefficient C": "-8.091128E-05",
        "Coefficient D": "-1.007931E-07",
        "Coefficient E": "4.688009E-11",
        "Coefficient F": NaN,
        "Coefficient G": NaN,
        "T range, from": NaN,
        "T range, to": NaN
    },
    "Heat Capacity (Liquid)": NaN,
    "Viscosity (Gas, Low P)": NaN,
    "Viscosity (Liquid)": {
        "Equation Name": "Andrade Equation",
        "Equation": "ln (VISL) = A + B/ T  where T in K and VISL in cP.",
        "Coefficient A": "-4.415",
        "Coefficient B": "845.8",
        "Coefficient C": "0",
        "Coefficient D": "0",
        "Coefficient E": NaN,
        "Coefficient F": NaN,
        "Coefficient G": NaN,
        "T range, from": "223.15 K",
        "T range, to": "303.15 K"
    },
    "Themal Conductivity (Gas, Low P)": NaN,
    "Themal Conductivity (Liquid)": NaN,
    "Surface Tension": NaN,
    "Partial Molar Volume (VOLP)": "1.173900E-01 m^3/kg-mol",
    "Solubility Parameters (SOLP)": "1.435929E+04 (J/cm^3)^0.5",
    "SRK accentric factor (WSRK)": "2.400000E-01",
    "COSTALD Characteristic Volume (VSTAR)": "3.096000E-01 m^3/kg-mol",
    "Rackett parameter (ZRA)": "2.717000E-01",
    "Aniline Point (ANP)": "3.501500E+02 K",
    "H(formation,ideal gas)at 25 C": "-1.546000E+05 kJ/kg-mol",
    "G(formation,ideal gas) at 25 C": "-1.482000E+04 kJ/kg-mol",
    "Heat of Combustion, Gross form (HCB1)": "3.502887E+06 kJ/kg-mol",
    "Heat of Combustion, Net form (HCB2)": "3.238834E+06 kJ/kg-mol",
    "Van der Waals Volume (VDWV)": NaN,
    "Van der Waals Area (VDWA)": NaN,
    "UNIQUAC Ri Parameter (RI)": "3.824600E+00",
    "UNIQUAC Qi Parameter (QI)": "3.312000E+00",
    "Dipole Moment (DM)": "1.000000E-01 debye",
    "Radius of Gyration (GYRAD)": "3.313000E+00",
    "Liquid Density (DENL)": "8.593232E-03 g-mol/cm^3",
    "Temperature of DENL (TDENL)": "2.930000E+02 K",
    "Heat of Vaporizaiton (HVAP)": "2.468600E+04 kJ/kg-mol",
    "Temperature of HVAP (THVAP)": "3.012000E+02 K",
    "Surface Tension (SRF)": "1.444000E+01 dyn/cm",
    "Temperature of SRF (TSRF)": "2.982000E+02 K",
    "Dielectric Constant (DIEL)": NaN,
    "Temperature of DIEL (TDIEL)": NaN,
    "Refractive Index (RFI)": "1.350880E+00",
    "Temperature of RFI (TRFI)": "2.981500E+02 K",
    "Lower Flammability Limit(FLL)": NaN,
    "Upper Flammability Limit(FLU)": NaN,
    "Flash Point (Open Cup Method)": NaN,
    "Flash Point (Closed Cup Method)": NaN,
    "Autoignition Temperature (AIGT)": NaN,
    "NFPA Rating (Health)": 1.0,
    "NFPA Rating (Fire)": 4.0,
    "NFPA Rating (Safety)": NaN,
    "Class": "Paraffinic Hydrocarbons",
    "Subclass": "Branched Alkanes",
    "SMILES": "CCC(C)C"
}