{
    "ID": "34",
    "Name": "NEOPENTANE",
    "Synonyms": "2,2-DIMETHYLPROPANE, TERT-PENTANE, TETRAMETHYLCARBON",
    "CAS No.": "463-82-1",
    "Formula": "C5H12",
    "Molecular Wt. (WT)": "7.21498E+01",
    "Normal Boiling Point Temp. (TB)": "2.82630E+02 K",
    "Freezing Point Temp. (TF)": "2.56500E+02 K",
    "Triple Point Temp. (TT)": "2.56600E+02 K",
    "Triple Point Press. (PT)": NaN,
    "Critical Temperature. (TC)": "4.33800E+02 K",
    "Critical Pressure (PC)": "3.19600E+03 kPa",
    "Critical Volume (VC)": "3.07000E-01 m^3/kg-mol",
    "Critical Compressibility (ZC)": "2.72031E-01",
    "Accentric Factor (ACCF)": "1.97000E-01",
    "Vapor Pressure": {
        "Equation Name": "KDB Correlation Equation",
        "Equation": "ln(Pvp) = A*ln(T) + B/T + C + D*T^2 where Pvp in kPa, T in K",
        "Coefficient A": "-8.003416E+00",
        "Coefficient B": "-4.676679E+03",
        "Coefficient C": "6.551755E+01",
        "Coefficient D": "1.026867E-05",
        "Coefficient E": NaN,
        "Coefficient F": NaN,
        "Coefficient G": NaN,
        "T range, from": "256.58 K",
        "T range, to": "433.78 K"
    },
    "Heat Capacity (Ideal Gas)": {
        "Equation Name": "Polynomial Equation",
        "Equation": "Cp = A + B*T + C*T^2 + D*T^3 + E*T^4  where Cp in kJ/kg-mol , T in K",
        "Coefficient A": "1.320056E+00",
        "Coefficient B": "4.420146E-01",
        "Coefficient C": "-8.117260E-05",
        "Coefficient D": "-1.532335E-07",
        "Coefficient E": "7.428196E-11",
        "Coefficient F": NaN,
        "Coefficient G": NaN,
        "T range, from": NaN,
        "T range, to": NaN
    },
    "Heat Capacity (Liquid)": NaN,
    "Viscosity (Gas, Low P)": NaN,
    "Viscosity (Liquid)": {
        "Equation Name": "Andrade Equation",
        "Equation": "ln (VISL) = A + B/ T  where T in K and VISL in cP.",
        "Coefficient A": "-5.715",
        "Coefficient B": "1248",
        "Coefficient C": "0",
        "Coefficient D": "0",
        "Coefficient E": NaN,
        "Coefficient F": NaN,
        "Coefficient G": NaN,
        "T range, from": "263.15 K",
        "T range, to": "283.15 K"
    },
    "Themal Conductivity (Gas, Low P)": NaN,
    "Themal Conductivity (Liquid)": NaN,
    "Surface Tension": NaN,
    "Partial Molar Volume (VOLP)": NaN,
    "Solubility Parameters (SOLP)": "1.435929E+04 (J/cm^3)^0.5",
    "SRK accentric factor (WSRK)": "1.975000E-01",
    "COSTALD Characteristic Volume (VSTAR)": "3.126000E-01 m^3/kg-mol",
    "Rackett parameter (ZRA)": "2.756000E-01",
    "Aniline Point (ANP)": "3.751500E+02 K",
    "H(formation,ideal gas)at 25 C": "-1.661000E+05 kJ/kg-mol",
    "G(formation,ideal gas) at 25 C": "-1.524000E+04 kJ/kg-mol",
    "Heat of Combustion, Gross form (HCB1)": "3.491715E+06 kJ/kg-mol",
    "Heat of Combustion, Net form (HCB2)": "3.227621E+06 kJ/kg-mol",
    "Van der Waals Volume (VDWV)": NaN,
    "Van der Waals Area (VDWA)": NaN,
    "UNIQUAC Ri Parameter (RI)": NaN,
    "UNIQUAC Qi Parameter (QI)": NaN,
    "Dipole Moment (DM)": "0.000000E+00 debye",
    "Radius of Gyration (GYRAD)": NaN,
    "Liquid Density (DENL)": "8.191291E-03 g-mol/cm^3",
    "Temperature of DENL (TDENL)": "2.930000E+02 K",
    "Heat of Vaporizaiton (HVAP)": "2.275300E+04 kJ/kg-mol",
    "Temperature of HVAP (THVAP)": "2.826000E+02 K",
    "Surface Tension (SRF)": "1.129000E+01 dyn/cm",
    "Temperature of SRF (TSRF)": "2.982000E+02 K",
    "Dielectric Constant (DIEL)": NaN,
    "Temperature of DIEL (TDIEL)": NaN,
    "Refractive Index (RFI)": "1.339000E+00",
    "Temperature of RFI (TRFI)": "2.981500E+02 K",
    "Lower Flammability Limit(FLL)": NaN,
    "Upper Flammability Limit(FLU)": NaN,
    "Flash Point (Open Cup Method)": NaN,
    "Flash Point (Closed Cup Method)": NaN,
    "Autoignition Temperature (AIGT)": NaN,
    "NFPA Rating (Health)": NaN,
    "NFPA Rating (Fire)": 4.0,
    "NFPA Rating (Safety)": NaN,
    "Class": "Paraffinic Hydrocarbons",
    "Subclass": "Branched Alkanes",
    "SMILES": "CC(C)(C)C"
}