{
    "ID": "341",
    "Name": "1-NONENE",
    "Synonyms": "N-NON-1-ENE, NONENE, NONYLENE",
    "CAS No.": "124-11-8",
    "Formula": "C9H18",
    "Molecular Wt. (WT)": "1.26241E+02",
    "Normal Boiling Point Temp. (TB)": "4.20000E+02 K",
    "Freezing Point Temp. (TF)": "1.91800E+02 K",
    "Triple Point Temp. (TT)": NaN,
    "Triple Point Press. (PT)": NaN,
    "Critical Temperature. (TC)": "5.94000E+02 K",
    "Critical Pressure (PC)": "2.34000E+03 kPa",
    "Critical Volume (VC)": "5.26000E-01 m^3/kg-mol",
    "Critical Compressibility (ZC)": "2.49217E-01",
    "Accentric Factor (ACCF)": "4.30000E-01",
    "Vapor Pressure": {
        "Equation Name": "KDB Correlation Equation",
        "Equation": "ln(Pvp) = A*ln(T) + B/T + C + D*T^2 where Pvp in kPa, T in K",
        "Coefficient A": "-1.348137E+01",
        "Coefficient B": "-9.036196E+03",
        "Coefficient C": "1.060098E+02",
        "Coefficient D": "8.710528E-06",
        "Coefficient E": NaN,
        "Coefficient F": NaN,
        "Coefficient G": NaN,
        "T range, from": "191.78 K",
        "T range, to": "593.25 K"
    },
    "Heat Capacity (Ideal Gas)": {
        "Equation Name": "Polynomial Equation",
        "Equation": "Cp = A + B*T + C*T^2 + D*T^3 + E*T^4  where Cp in kJ/kg-mol , T in K",
        "Coefficient A": "3.781114E+01",
        "Coefficient B": "5.073408E-01",
        "Coefficient C": "3.016577E-04",
        "Coefficient D": "-6.401053E-07",
        "Coefficient E": "2.405476E-10",
        "Coefficient F": NaN,
        "Coefficient G": NaN,
        "T range, from": NaN,
        "T range, to": NaN
    },
    "Heat Capacity (Liquid)": NaN,
    "Viscosity (Gas, Low P)": NaN,
    "Viscosity (Liquid)": {
        "Equation Name": "Andrade Equation",
        "Equation": "ln (VISL) = A + B/ T  where T in K and VISL in cP.",
        "Coefficient A": "-4.189",
        "Coefficient B": "1085",
        "Coefficient C": "0",
        "Coefficient D": "0",
        "Coefficient E": NaN,
        "Coefficient F": NaN,
        "Coefficient G": NaN,
        "T range, from": "273.15 K",
        "T range, to": "398.15 K"
    },
    "Themal Conductivity (Gas, Low P)": NaN,
    "Themal Conductivity (Liquid)": NaN,
    "Surface Tension": NaN,
    "Partial Molar Volume (VOLP)": "1.740600E-01 m^3/kg-mol",
    "Solubility Parameters (SOLP)": "1.557431E+04 (J/cm^3)^0.5",
    "SRK accentric factor (WSRK)": "4.327000E-01",
    "COSTALD Characteristic Volume (VSTAR)": "5.333000E-01 m^3/kg-mol",
    "Rackett parameter (ZRA)": "2.539000E-01",
    "Aniline Point (ANP)": "3.111500E+02 K",
    "H(formation,ideal gas)at 25 C": "-1.036000E+05 kJ/kg-mol",
    "G(formation,ideal gas) at 25 C": "1.128000E+05 kJ/kg-mol",
    "Heat of Combustion, Gross form (HCB1)": "5.965129E+06 kJ/kg-mol",
    "Heat of Combustion, Net form (HCB2)": "5.568988E+06 kJ/kg-mol",
    "Van der Waals Volume (VDWV)": NaN,
    "Van der Waals Area (VDWA)": NaN,
    "UNIQUAC Ri Parameter (RI)": 6.2929,
    "UNIQUAC Qi Parameter (QI)": 5.264,
    "Dipole Moment (DM)": NaN,
    "Radius of Gyration (GYRAD)": NaN,
    "Liquid Density (DENL)": "5.901401E-03 g-mol/cm^3",
    "Temperature of DENL (TDENL)": "2.730000E+02 K",
    "Heat of Vaporizaiton (HVAP)": "3.631700E+04 kJ/kg-mol",
    "Temperature of HVAP (THVAP)": "4.200000E+02 K",
    "Surface Tension (SRF)": "2.256000E+01 dyn/cm",
    "Temperature of SRF (TSRF)": "2.982000E+02 K",
    "Dielectric Constant (DIEL)": NaN,
    "Temperature of DIEL (TDIEL)": NaN,
    "Refractive Index (RFI)": "1.413330E+00",
    "Temperature of RFI (TRFI)": "2.981500E+02 K",
    "Lower Flammability Limit(FLL)": NaN,
    "Upper Flammability Limit(FLU)": NaN,
    "Flash Point (Open Cup Method)": NaN,
    "Flash Point (Closed Cup Method)": NaN,
    "Autoignition Temperature (AIGT)": NaN,
    "NFPA Rating (Health)": NaN,
    "NFPA Rating (Fire)": 3.0,
    "NFPA Rating (Safety)": NaN,
    "Class": "Unsaturated Hydrocarbons",
    "Subclass": "Alkenes",
    "SMILES": "CCCCCCCC=C"
}