{
    "ID": "344",
    "Name": "1-DECENE",
    "Synonyms": "N-1-DECENE, DECYLENE",
    "CAS No.": "872-05-9",
    "Formula": "C10H20",
    "Molecular Wt. (WT)": "1.40268E+02",
    "Normal Boiling Point Temp. (TB)": "4.43600E+02 K",
    "Freezing Point Temp. (TF)": "2.06900E+02 K",
    "Triple Point Temp. (TT)": NaN,
    "Triple Point Press. (PT)": NaN,
    "Critical Temperature. (TC)": "6.17000E+02 K",
    "Critical Pressure (PC)": "2.22000E+03 kPa",
    "Critical Volume (VC)": "5.84000E-01 m^3/kg-mol",
    "Critical Compressibility (ZC)": "2.52723E-01",
    "Accentric Factor (ACCF)": "4.91000E-01",
    "Vapor Pressure": {
        "Equation Name": "KDB Correlation Equation",
        "Equation": "ln(Pvp) = A*ln(T) + B/T + C + D*T^2 where Pvp in kPa, T in K",
        "Coefficient A": "-1.412039E+01",
        "Coefficient B": "-9.753797E+03",
        "Coefficient C": "1.109360E+02",
        "Coefficient D": "8.633272E-06",
        "Coefficient E": NaN,
        "Coefficient F": NaN,
        "Coefficient G": NaN,
        "T range, from": "206.89 K",
        "T range, to": "617.05 K"
    },
    "Heat Capacity (Ideal Gas)": {
        "Equation Name": "Polynomial Equation",
        "Equation": "Cp = A + B*T + C*T^2 + D*T^3 + E*T^4  where Cp in kJ/kg-mol , T in K",
        "Coefficient A": "4.123543E+01",
        "Coefficient B": "5.680546E-01",
        "Coefficient C": "3.401928E-04",
        "Coefficient D": "-7.264171E-07",
        "Coefficient E": "2.742439E-10",
        "Coefficient F": NaN,
        "Coefficient G": NaN,
        "T range, from": NaN,
        "T range, to": NaN
    },
    "Heat Capacity (Liquid)": NaN,
    "Viscosity (Gas, Low P)": NaN,
    "Viscosity (Liquid)": {
        "Equation Name": "Andrade Equation",
        "Equation": "ln (VISL) = A + B/ T  where T in K and VISL in cP.",
        "Coefficient A": "-4.297",
        "Coefficient B": "1194",
        "Coefficient C": "0",
        "Coefficient D": "0",
        "Coefficient E": NaN,
        "Coefficient F": NaN,
        "Coefficient G": NaN,
        "T range, from": "273.15 K",
        "T range, to": "398.15 K"
    },
    "Themal Conductivity (Gas, Low P)": NaN,
    "Themal Conductivity (Liquid)": NaN,
    "Surface Tension": NaN,
    "Partial Molar Volume (VOLP)": "1.903500E-01 m^3/kg-mol",
    "Solubility Parameters (SOLP)": "1.561522E+04 (J/cm^3)^0.5",
    "SRK accentric factor (WSRK)": "4.975000E-01",
    "COSTALD Characteristic Volume (VSTAR)": "6.013000E-01 m^3/kg-mol",
    "Rackett parameter (ZRA)": "2.546000E-01",
    "Aniline Point (ANP)": NaN,
    "H(formation,ideal gas)at 25 C": "-1.242000E+05 kJ/kg-mol",
    "G(formation,ideal gas) at 25 C": "1.211000E+05 kJ/kg-mol",
    "Heat of Combustion, Gross form (HCB1)": NaN,
    "Heat of Combustion, Net form (HCB2)": NaN,
    "Van der Waals Volume (VDWV)": NaN,
    "Van der Waals Area (VDWA)": NaN,
    "UNIQUAC Ri Parameter (RI)": 6.9673,
    "UNIQUAC Qi Parameter (QI)": 5.804,
    "Dipole Moment (DM)": NaN,
    "Radius of Gyration (GYRAD)": NaN,
    "Liquid Density (DENL)": "5.282744E-03 g-mol/cm^3",
    "Temperature of DENL (TDENL)": "2.930000E+02 K",
    "Heat of Vaporizaiton (HVAP)": "3.866000E+04 kJ/kg-mol",
    "Temperature of HVAP (THVAP)": "4.437000E+02 K",
    "Surface Tension (SRF)": "2.354000E+01 dyn/cm",
    "Temperature of SRF (TSRF)": "2.982000E+02 K",
    "Dielectric Constant (DIEL)": NaN,
    "Temperature of DIEL (TDIEL)": NaN,
    "Refractive Index (RFI)": NaN,
    "Temperature of RFI (TRFI)": NaN,
    "Lower Flammability Limit(FLL)": NaN,
    "Upper Flammability Limit(FLU)": NaN,
    "Flash Point (Open Cup Method)": NaN,
    "Flash Point (Closed Cup Method)": "3.264833E+02 K",
    "Autoignition Temperature (AIGT)": "5.081500E+02 K",
    "NFPA Rating (Health)": NaN,
    "NFPA Rating (Fire)": "2",
    "NFPA Rating (Safety)": NaN,
    "Class": "Unsaturated Hydrocarbons",
    "Subclass": "Alkenes",
    "SMILES": "CCCCCCCCC=C"
}