{
    "ID": "347",
    "Name": "1-DODECENE",
    "Synonyms": "N-DODEC-1-ENE",
    "CAS No.": "112-41-4",
    "Formula": "C12H24",
    "Molecular Wt. (WT)": "1.68322E+02",
    "Normal Boiling Point Temp. (TB)": "4.86900E+02 K",
    "Freezing Point Temp. (TF)": "2.37900E+02 K",
    "Triple Point Temp. (TT)": "2.37930E+02 K",
    "Triple Point Press. (PT)": NaN,
    "Critical Temperature. (TC)": "6.58000E+02 K",
    "Critical Pressure (PC)": "1.93000E+03 kPa",
    "Critical Volume (VC)": "6.88500E-01 m^3/kg-mol",
    "Critical Compressibility (ZC)": "2.42884E-01",
    "Accentric Factor (ACCF)": "5.58000E-01",
    "Vapor Pressure": {
        "Equation Name": "KDB Correlation Equation",
        "Equation": "ln(Pvp) = A*ln(T) + B/T + C + D*T^2 where Pvp in kPa, T in K",
        "Coefficient A": "-1.646253E+01",
        "Coefficient B": "-1.183142E+04",
        "Coefficient C": "1.289848E+02",
        "Coefficient D": "7.726365E-06",
        "Coefficient E": NaN,
        "Coefficient F": NaN,
        "Coefficient G": NaN,
        "T range, from": "237.93 K",
        "T range, to": "657.00 K"
    },
    "Heat Capacity (Ideal Gas)": {
        "Equation Name": "Polynomial Equation",
        "Equation": "Cp = A + B*T + C*T^2 + D*T^3 + E*T^4  where Cp in kJ/kg-mol , T in K",
        "Coefficient A": "4.947123E+01",
        "Coefficient B": "6.820688E-01",
        "Coefficient C": "4.274383E-04",
        "Coefficient D": "-9.014299E-07",
        "Coefficient E": "3.403293E-10",
        "Coefficient F": NaN,
        "Coefficient G": NaN,
        "T range, from": NaN,
        "T range, to": NaN
    },
    "Heat Capacity (Liquid)": NaN,
    "Viscosity (Gas, Low P)": NaN,
    "Viscosity (Liquid)": {
        "Equation Name": "Andrade Equation",
        "Equation": "ln (VISL) = A + B/ T  where T in K and VISL in cP.",
        "Coefficient A": "-4.572",
        "Coefficient B": "1418",
        "Coefficient C": "0",
        "Coefficient D": "0",
        "Coefficient E": NaN,
        "Coefficient F": NaN,
        "Coefficient G": NaN,
        "T range, from": "273.15 K",
        "T range, to": "398.15 K"
    },
    "Themal Conductivity (Gas, Low P)": NaN,
    "Themal Conductivity (Liquid)": NaN,
    "Surface Tension": NaN,
    "Partial Molar Volume (VOLP)": NaN,
    "Solubility Parameters (SOLP)": "1.611636E+04 (J/cm^3)^0.5",
    "SRK accentric factor (WSRK)": "5.638000E-01",
    "COSTALD Characteristic Volume (VSTAR)": "7.340000E-01 m^3/kg-mol",
    "Rackett parameter (ZRA)": NaN,
    "Aniline Point (ANP)": NaN,
    "H(formation,ideal gas)at 25 C": "-1.655000E+05 kJ/kg-mol",
    "G(formation,ideal gas) at 25 C": "1.380000E+05 kJ/kg-mol",
    "Heat of Combustion, Gross form (HCB1)": NaN,
    "Heat of Combustion, Net form (HCB2)": NaN,
    "Van der Waals Volume (VDWV)": NaN,
    "Van der Waals Area (VDWA)": NaN,
    "UNIQUAC Ri Parameter (RI)": NaN,
    "UNIQUAC Qi Parameter (QI)": NaN,
    "Dipole Moment (DM)": NaN,
    "Radius of Gyration (GYRAD)": NaN,
    "Liquid Density (DENL)": "4.503285E-03 g-mol/cm^3",
    "Temperature of DENL (TDENL)": "2.930000E+02 K",
    "Heat of Vaporizaiton (HVAP)": "4.297000E+04 kJ/kg-mol",
    "Temperature of HVAP (THVAP)": "4.865000E+02 K",
    "Surface Tension (SRF)": "2.515000E+01 dyn/cm",
    "Temperature of SRF (TSRF)": "2.982000E+02 K",
    "Dielectric Constant (DIEL)": NaN,
    "Temperature of DIEL (TDIEL)": NaN,
    "Refractive Index (RFI)": NaN,
    "Temperature of RFI (TRFI)": NaN,
    "Lower Flammability Limit(FLL)": NaN,
    "Upper Flammability Limit(FLU)": NaN,
    "Flash Point (Open Cup Method)": NaN,
    "Flash Point (Closed Cup Method)": NaN,
    "Autoignition Temperature (AIGT)": NaN,
    "NFPA Rating (Health)": NaN,
    "NFPA Rating (Fire)": 1.0,
    "NFPA Rating (Safety)": NaN,
    "Class": "Unsaturated Hydrocarbons",
    "Subclass": "Alkenes",
    "SMILES": "CCCCCCCCCCC=C"
}