{
    "ID": "349",
    "Name": "1-TETRADECENE",
    "Synonyms": "N-TETRADEC-1-ENE",
    "CAS No.": "1120-36-1",
    "Formula": "C14H28",
    "Molecular Wt. (WT)": "1.96375E+02",
    "Normal Boiling Point Temp. (TB)": "5.24300E+02 K",
    "Freezing Point Temp. (TF)": "2.60000E+02 K",
    "Triple Point Temp. (TT)": NaN,
    "Triple Point Press. (PT)": NaN,
    "Critical Temperature. (TC)": "6.89000E+02 K",
    "Critical Pressure (PC)": "1.56000E+03 kPa",
    "Critical Volume (VC)": "8.00500E-01 m^3/kg-mol",
    "Critical Compressibility (ZC)": "2.17987E-01",
    "Accentric Factor (ACCF)": "6.44000E-01",
    "Vapor Pressure": {
        "Equation Name": "KDB Correlation Equation",
        "Equation": "ln(Pvp) = A*ln(T) + B/T + C + D*T^2 where Pvp in kPa, T in K",
        "Coefficient A": "-2.139391E+01",
        "Coefficient B": "-1.457305E+04",
        "Coefficient C": "1.636738E+02",
        "Coefficient D": "9.845146E-06",
        "Coefficient E": NaN,
        "Coefficient F": NaN,
        "Coefficient G": NaN,
        "T range, from": "260.30 K",
        "T range, to": "692.00 K"
    },
    "Heat Capacity (Ideal Gas)": {
        "Equation Name": "Polynomial Equation",
        "Equation": "Cp = A + B*T + C*T^2 + D*T^3 + E*T^4  where Cp in kJ/kg-mol , T in K",
        "Coefficient A": "-2.487891E+00",
        "Coefficient B": "1.152704E+00",
        "Coefficient C": "-2.088101E-04",
        "Coefficient D": "-4.732992E-07",
        "Coefficient E": "2.299628E-10",
        "Coefficient F": NaN,
        "Coefficient G": NaN,
        "T range, from": NaN,
        "T range, to": NaN
    },
    "Heat Capacity (Liquid)": NaN,
    "Viscosity (Gas, Low P)": NaN,
    "Viscosity (Liquid)": {
        "Equation Name": "Andrade Equation",
        "Equation": "ln (VISL) = A + B/ T  where T in K and VISL in cP.",
        "Coefficient A": "-4.778",
        "Coefficient B": "1606",
        "Coefficient C": "0",
        "Coefficient D": "0",
        "Coefficient E": NaN,
        "Coefficient F": NaN,
        "Coefficient G": NaN,
        "T range, from": "273.15 K",
        "T range, to": "398.15 K"
    },
    "Themal Conductivity (Gas, Low P)": NaN,
    "Themal Conductivity (Liquid)": NaN,
    "Surface Tension": NaN,
    "Partial Molar Volume (VOLP)": NaN,
    "Solubility Parameters (SOLP)": "1.559476E+04 (J/cm^3)^0.5",
    "SRK accentric factor (WSRK)": NaN,
    "COSTALD Characteristic Volume (VSTAR)": NaN,
    "Rackett parameter (ZRA)": NaN,
    "Aniline Point (ANP)": NaN,
    "H(formation,ideal gas)at 25 C": "-2.067000E+05 kJ/kg-mol",
    "G(formation,ideal gas) at 25 C": "1.549000E+05 kJ/kg-mol",
    "Heat of Combustion, Gross form (HCB1)": NaN,
    "Heat of Combustion, Net form (HCB2)": NaN,
    "Van der Waals Volume (VDWV)": NaN,
    "Van der Waals Area (VDWA)": NaN,
    "UNIQUAC Ri Parameter (RI)": NaN,
    "UNIQUAC Qi Parameter (QI)": NaN,
    "Dipole Moment (DM)": NaN,
    "Radius of Gyration (GYRAD)": NaN,
    "Liquid Density (DENL)": "4.002542E-03 g-mol/cm^3",
    "Temperature of DENL (TDENL)": "2.730000E+02 K",
    "Heat of Vaporizaiton (HVAP)": "4.690300E+04 kJ/kg-mol",
    "Temperature of HVAP (THVAP)": "5.243000E+02 K",
    "Surface Tension (SRF)": "2.636000E+01 dyn/cm",
    "Temperature of SRF (TSRF)": "2.982000E+02 K",
    "Dielectric Constant (DIEL)": NaN,
    "Temperature of DIEL (TDIEL)": NaN,
    "Refractive Index (RFI)": NaN,
    "Temperature of RFI (TRFI)": NaN,
    "Lower Flammability Limit(FLL)": NaN,
    "Upper Flammability Limit(FLU)": NaN,
    "Flash Point (Open Cup Method)": NaN,
    "Flash Point (Closed Cup Method)": NaN,
    "Autoignition Temperature (AIGT)": NaN,
    "NFPA Rating (Health)": NaN,
    "NFPA Rating (Fire)": NaN,
    "NFPA Rating (Safety)": NaN,
    "Class": "Unsaturated Hydrocarbons",
    "Subclass": "Alkenes",
    "SMILES": "CCCCCCCCCCCCC=C"
}