{
    "ID": "35",
    "Name": "2-METHYLPENTANE",
    "Synonyms": "ISOHEXANE, METHYLPENTANE",
    "CAS No.": "107-83-5",
    "Formula": "C6H14",
    "Molecular Wt. (WT)": "8.61766E+01",
    "Normal Boiling Point Temp. (TB)": "3.33410E+02 K",
    "Freezing Point Temp. (TF)": "1.19400E+02 K",
    "Triple Point Temp. (TT)": NaN,
    "Triple Point Press. (PT)": NaN,
    "Critical Temperature. (TC)": "4.97700E+02 K",
    "Critical Pressure (PC)": "3.04000E+03 kPa",
    "Critical Volume (VC)": "3.68000E-01 m^3/kg-mol",
    "Critical Compressibility (ZC)": "2.70344E-01",
    "Accentric Factor (ACCF)": "2.78000E-01",
    "Vapor Pressure": {
        "Equation Name": "KDB Correlation Equation",
        "Equation": "ln(Pvp) = A*ln(T) + B/T + C + D*T^2 where Pvp in kPa, T in K",
        "Coefficient A": "-8.197670E+00",
        "Coefficient B": "-5.726953E+03",
        "Coefficient C": "6.860151E+01",
        "Coefficient D": "7.369120E-06",
        "Coefficient E": NaN,
        "Coefficient F": NaN,
        "Coefficient G": NaN,
        "T range, from": "119.55 K",
        "T range, to": "497.50 K"
    },
    "Heat Capacity (Ideal Gas)": {
        "Equation Name": "Polynomial Equation",
        "Equation": "Cp = A + B*T + C*T^2 + D*T^3 + E*T^4  where Cp in kJ/kg-mol , T in K",
        "Coefficient A": "3.666438E+00",
        "Coefficient B": "5.055939E-01",
        "Coefficient C": "-9.097416E-05",
        "Coefficient D": "-1.503293E-07",
        "Coefficient E": "6.933134E-11",
        "Coefficient F": NaN,
        "Coefficient G": NaN,
        "T range, from": NaN,
        "T range, to": NaN
    },
    "Heat Capacity (Liquid)": NaN,
    "Viscosity (Gas, Low P)": NaN,
    "Viscosity (Liquid)": {
        "Equation Name": "Andrade Equation",
        "Equation": "ln (VISL) = A + B/ T  where T in K and VISL in cP.",
        "Coefficient A": "-4.247",
        "Coefficient B": "884.5",
        "Coefficient C": "0",
        "Coefficient D": "0",
        "Coefficient E": NaN,
        "Coefficient F": NaN,
        "Coefficient G": NaN,
        "T range, from": "273.15 K",
        "T range, to": "343.15 K"
    },
    "Themal Conductivity (Gas, Low P)": NaN,
    "Themal Conductivity (Liquid)": NaN,
    "Surface Tension": NaN,
    "Partial Molar Volume (VOLP)": "1.328800E-01 m^3/kg-mol",
    "Solubility Parameters (SOLP)": "1.435724E+04 (J/cm^3)^0.5",
    "SRK accentric factor (WSRK)": "2.791000E-01",
    "COSTALD Characteristic Volume (VSTAR)": "3.677000E-01 m^3/kg-mol",
    "Rackett parameter (ZRA)": "2.672000E-01",
    "Aniline Point (ANP)": "3.469500E+02 K",
    "H(formation,ideal gas)at 25 C": "-1.744000E+05 kJ/kg-mol",
    "G(formation,ideal gas) at 25 C": "-5.020000E+03 kJ/kg-mol",
    "Heat of Combustion, Gross form (HCB1)": "4.157683E+06 kJ/kg-mol",
    "Heat of Combustion, Net form (HCB2)": "3.849573E+06 kJ/kg-mol",
    "Van der Waals Volume (VDWV)": NaN,
    "Van der Waals Area (VDWA)": NaN,
    "UNIQUAC Ri Parameter (RI)": 4.499,
    "UNIQUAC Qi Parameter (QI)": 3.852,
    "Dipole Moment (DM)": NaN,
    "Radius of Gyration (GYRAD)": NaN,
    "Liquid Density (DENL)": "7.577463E-03 g-mol/cm^3",
    "Temperature of DENL (TDENL)": "2.930000E+02 K",
    "Heat of Vaporizaiton (HVAP)": "2.778200E+04 kJ/kg-mol",
    "Temperature of HVAP (THVAP)": "3.334000E+02 K",
    "Surface Tension (SRF)": "1.687000E+01 dyn/cm",
    "Temperature of SRF (TSRF)": "2.982000E+02 K",
    "Dielectric Constant (DIEL)": NaN,
    "Temperature of DIEL (TDIEL)": NaN,
    "Refractive Index (RFI)": "1.368730E+00",
    "Temperature of RFI (TRFI)": "2.981500E+02 K",
    "Lower Flammability Limit(FLL)": NaN,
    "Upper Flammability Limit(FLU)": NaN,
    "Flash Point (Open Cup Method)": NaN,
    "Flash Point (Closed Cup Method)": NaN,
    "Autoignition Temperature (AIGT)": NaN,
    "NFPA Rating (Health)": 1.0,
    "NFPA Rating (Fire)": 3.0,
    "NFPA Rating (Safety)": NaN,
    "Class": "Paraffinic Hydrocarbons",
    "Subclass": "Branched Alkanes",
    "SMILES": "CCCC(C)C"
}