{
    "ID": "351",
    "Name": "1-HEXADECENE",
    "Synonyms": "CETENE, 1-CETENE",
    "CAS No.": "629-73-2",
    "Formula": "C16H32",
    "Molecular Wt. (WT)": "2.24429E+02",
    "Normal Boiling Point Temp. (TB)": "5.58000E+02 K",
    "Freezing Point Temp. (TF)": "2.77300E+02 K",
    "Triple Point Temp. (TT)": NaN,
    "Triple Point Press. (PT)": NaN,
    "Critical Temperature. (TC)": "7.17000E+02 K",
    "Critical Pressure (PC)": "1.33000E+03 kPa",
    "Critical Volume (VC)": "9.12500E-01 m^3/kg-mol",
    "Critical Compressibility (ZC)": "2.03577E-01",
    "Accentric Factor (ACCF)": "7.21000E-01",
    "Vapor Pressure": {
        "Equation Name": "KDB Correlation Equation",
        "Equation": "ln(Pvp) = A*ln(T) + B/T + C + D*T^2 where Pvp in kPa, T in K",
        "Coefficient A": "-1.104866E+01",
        "Coefficient B": "-1.210839E+04",
        "Coefficient C": "9.537108E+01",
        "Coefficient D": "2.676118E-06",
        "Coefficient E": NaN,
        "Coefficient F": NaN,
        "Coefficient G": NaN,
        "T range, from": "277.51 K",
        "T range, to": "722.00 K"
    },
    "Heat Capacity (Ideal Gas)": {
        "Equation Name": "Polynomial Equation",
        "Equation": "Cp = A + B*T + C*T^2 + D*T^3 + E*T^4  where Cp in kJ/kg-mol , T in K",
        "Coefficient A": "4.533689E+00",
        "Coefficient B": "1.271737E+00",
        "Coefficient C": "-1.256447E-04",
        "Coefficient D": "-6.504235E-07",
        "Coefficient E": "2.982656E-10",
        "Coefficient F": NaN,
        "Coefficient G": NaN,
        "T range, from": NaN,
        "T range, to": NaN
    },
    "Heat Capacity (Liquid)": NaN,
    "Viscosity (Gas, Low P)": NaN,
    "Viscosity (Liquid)": {
        "Equation Name": "Andrade Equation",
        "Equation": "ln (VISL) = A + B/ T  where T in K and VISL in cP.",
        "Coefficient A": "-4.938",
        "Coefficient B": "1767",
        "Coefficient C": "0",
        "Coefficient D": "0",
        "Coefficient E": NaN,
        "Coefficient F": NaN,
        "Coefficient G": NaN,
        "T range, from": "278.15 K",
        "T range, to": "398.15 K"
    },
    "Themal Conductivity (Gas, Low P)": NaN,
    "Themal Conductivity (Liquid)": NaN,
    "Surface Tension": NaN,
    "Partial Molar Volume (VOLP)": NaN,
    "Solubility Parameters (SOLP)": "1.551499E+04 (J/cm^3)^0.5",
    "SRK accentric factor (WSRK)": NaN,
    "COSTALD Characteristic Volume (VSTAR)": NaN,
    "Rackett parameter (ZRA)": NaN,
    "Aniline Point (ANP)": NaN,
    "H(formation,ideal gas)at 25 C": "-2.480000E+05 kJ/kg-mol",
    "G(formation,ideal gas) at 25 C": "1.716000E+05 kJ/kg-mol",
    "Heat of Combustion, Gross form (HCB1)": NaN,
    "Heat of Combustion, Net form (HCB2)": NaN,
    "Van der Waals Volume (VDWV)": NaN,
    "Van der Waals Area (VDWA)": NaN,
    "UNIQUAC Ri Parameter (RI)": NaN,
    "UNIQUAC Qi Parameter (QI)": NaN,
    "Dipole Moment (DM)": NaN,
    "Radius of Gyration (GYRAD)": NaN,
    "Liquid Density (DENL)": "3.511136E-03 g-mol/cm^3",
    "Temperature of DENL (TDENL)": "2.830000E+02 K",
    "Heat of Vaporizaiton (HVAP)": "5.041700E+04 kJ/kg-mol",
    "Temperature of HVAP (THVAP)": "5.580000E+02 K",
    "Surface Tension (SRF)": "2.732000E+01 dyn/cm",
    "Temperature of SRF (TSRF)": "2.982000E+02 K",
    "Dielectric Constant (DIEL)": NaN,
    "Temperature of DIEL (TDIEL)": NaN,
    "Refractive Index (RFI)": NaN,
    "Temperature of RFI (TRFI)": NaN,
    "Lower Flammability Limit(FLL)": NaN,
    "Upper Flammability Limit(FLU)": NaN,
    "Flash Point (Open Cup Method)": NaN,
    "Flash Point (Closed Cup Method)": NaN,
    "Autoignition Temperature (AIGT)": NaN,
    "NFPA Rating (Health)": NaN,
    "NFPA Rating (Fire)": NaN,
    "NFPA Rating (Safety)": NaN,
    "Class": "Unsaturated Hydrocarbons",
    "Subclass": "Alkenes",
    "SMILES": "CCCCCCCCCCCCCCC=C"
}