{
    "ID": "356",
    "Name": "PROPADIENE",
    "Synonyms": "ALLENE, DIMETHYLENEMETHANE, PROPA-1,2-DIENE",
    "CAS No.": "463-49-0",
    "Formula": "C3H4",
    "Molecular Wt. (WT)": "4.00646E+01",
    "Normal Boiling Point Temp. (TB)": "2.38700E+02 K",
    "Freezing Point Temp. (TF)": "1.36870E+02 K",
    "Triple Point Temp. (TT)": NaN,
    "Triple Point Press. (PT)": NaN,
    "Critical Temperature. (TC)": "3.94000E+02 K",
    "Critical Pressure (PC)": "5.25000E+03 kPa",
    "Critical Volume (VC)": "1.62000E-01 m^3/kg-mol",
    "Critical Compressibility (ZC)": "2.59622E-01",
    "Accentric Factor (ACCF)": "3.13000E-01",
    "Vapor Pressure": {
        "Equation Name": "KDB Correlation Equation",
        "Equation": "ln(Pvp) = A*ln(T) + B/T + C + D*T^2 where Pvp in kPa, T in K",
        "Coefficient A": "-9.509388E+00",
        "Coefficient B": "-4.308020E+03",
        "Coefficient C": "7.379643E+01",
        "Coefficient D": "1.629706E-05",
        "Coefficient E": NaN,
        "Coefficient F": NaN,
        "Coefficient G": NaN,
        "T range, from": "136.15 K",
        "T range, to": "393.15 K"
    },
    "Heat Capacity (Ideal Gas)": {
        "Equation Name": "Polynomial Equation",
        "Equation": "Cp = A + B*T + C*T^2 + D*T^3 + E*T^4  where Cp in kJ/kg-mol , T in K",
        "Coefficient A": "1.082527E+01",
        "Coefficient B": "1.944762E-01",
        "Coefficient C": "-1.129009E-04",
        "Coefficient D": "2.239041E-08",
        "Coefficient E": "2.230314E-12",
        "Coefficient F": NaN,
        "Coefficient G": NaN,
        "T range, from": NaN,
        "T range, to": NaN
    },
    "Heat Capacity (Liquid)": NaN,
    "Viscosity (Gas, Low P)": NaN,
    "Viscosity (Liquid)": NaN,
    "Themal Conductivity (Gas, Low P)": NaN,
    "Themal Conductivity (Liquid)": NaN,
    "Surface Tension": NaN,
    "Partial Molar Volume (VOLP)": NaN,
    "Solubility Parameters (SOLP)": "1.401156E+04 (J/cm^3)^0.5",
    "SRK accentric factor (WSRK)": "1.430000E-01",
    "COSTALD Characteristic Volume (VSTAR)": "1.655000E-01 m^3/kg-mol",
    "Rackett parameter (ZRA)": "2.730000E-01",
    "Aniline Point (ANP)": NaN,
    "H(formation,ideal gas)at 25 C": "1.923000E+05 kJ/kg-mol",
    "G(formation,ideal gas) at 25 C": "2.025000E+05 kJ/kg-mol",
    "Heat of Combustion, Gross form (HCB1)": "1.928824E+06 kJ/kg-mol",
    "Heat of Combustion, Net form (HCB2)": "1.840960E+06 kJ/kg-mol",
    "Van der Waals Volume (VDWV)": NaN,
    "Van der Waals Area (VDWA)": NaN,
    "UNIQUAC Ri Parameter (RI)": NaN,
    "UNIQUAC Qi Parameter (QI)": NaN,
    "Dipole Moment (DM)": "2.000000E-01 debye",
    "Radius of Gyration (GYRAD)": NaN,
    "Liquid Density (DENL)": "1.642347E-02 g-mol/cm^3",
    "Temperature of DENL (TDENL)": "2.380000E+02 K",
    "Heat of Vaporizaiton (HVAP)": "1.861900E+04 kJ/kg-mol",
    "Temperature of HVAP (THVAP)": "2.412000E+02 K",
    "Surface Tension (SRF)": "1.650000E+01 dyn/cm",
    "Temperature of SRF (TSRF)": "2.332000E+02 K",
    "Dielectric Constant (DIEL)": NaN,
    "Temperature of DIEL (TDIEL)": NaN,
    "Refractive Index (RFI)": NaN,
    "Temperature of RFI (TRFI)": NaN,
    "Lower Flammability Limit(FLL)": NaN,
    "Upper Flammability Limit(FLU)": NaN,
    "Flash Point (Open Cup Method)": NaN,
    "Flash Point (Closed Cup Method)": NaN,
    "Autoignition Temperature (AIGT)": NaN,
    "NFPA Rating (Health)": NaN,
    "NFPA Rating (Fire)": NaN,
    "NFPA Rating (Safety)": NaN,
    "Class": "Unsaturated Hydrocarbons",
    "Subclass": "Alkadienes",
    "SMILES": "C=C=C"
}