{
    "ID": "357",
    "Name": "1,2-BUTADIENE",
    "Synonyms": "METHYLALLENE",
    "CAS No.": "590-19-2",
    "Formula": "C4H6",
    "Molecular Wt. (WT)": "5.40914E+01",
    "Normal Boiling Point Temp. (TB)": "2.84000E+02 K",
    "Freezing Point Temp. (TF)": "1.37000E+02 K",
    "Triple Point Temp. (TT)": NaN,
    "Triple Point Press. (PT)": NaN,
    "Critical Temperature. (TC)": "4.43700E+02 K",
    "Critical Pressure (PC)": "4.49000E+03 kPa",
    "Critical Volume (VC)": "2.19000E-01 m^3/kg-mol",
    "Critical Compressibility (ZC)": "2.66541E-01",
    "Accentric Factor (ACCF)": "2.55000E-01",
    "Vapor Pressure": {
        "Equation Name": "KDB Correlation Equation",
        "Equation": "ln(Pvp) = A*ln(T) + B/T + C + D*T^2 where Pvp in kPa, T in K",
        "Coefficient A": "-4.996569E+00",
        "Coefficient B": "-4.152322E+03",
        "Coefficient C": "4.693892E+01",
        "Coefficient D": "6.507500E-06",
        "Coefficient E": NaN,
        "Coefficient F": NaN,
        "Coefficient G": NaN,
        "T range, from": "136.95 K",
        "T range, to": "444.00 K"
    },
    "Heat Capacity (Ideal Gas)": {
        "Equation Name": "Polynomial Equation",
        "Equation": "Cp = A + B*T + C*T^2 + D*T^3 + E*T^4  where Cp in kJ/kg-mol , T in K",
        "Coefficient A": "2.860703E+01",
        "Coefficient B": "1.581895E-01",
        "Coefficient C": "9.457469E-05",
        "Coefficient D": "-1.77179E-07",
        "Coefficient E": "6.250338E-11",
        "Coefficient F": NaN,
        "Coefficient G": NaN,
        "T range, from": NaN,
        "T range, to": NaN
    },
    "Heat Capacity (Liquid)": NaN,
    "Viscosity (Gas, Low P)": NaN,
    "Viscosity (Liquid)": NaN,
    "Themal Conductivity (Gas, Low P)": NaN,
    "Themal Conductivity (Liquid)": NaN,
    "Surface Tension": NaN,
    "Partial Molar Volume (VOLP)": NaN,
    "Solubility Parameters (SOLP)": "1.626159E+04 (J/cm^3)^0.5",
    "SRK accentric factor (WSRK)": "2.492000E-01",
    "COSTALD Characteristic Volume (VSTAR)": "2.183000E-01 m^3/kg-mol",
    "Rackett parameter (ZRA)": "2.675000E-01",
    "Aniline Point (ANP)": NaN,
    "H(formation,ideal gas)at 25 C": "1.623000E+05 kJ/kg-mol",
    "G(formation,ideal gas) at 25 C": "1.986000E+05 kJ/kg-mol",
    "Heat of Combustion, Gross form (HCB1)": "2.569520E+06 kJ/kg-mol",
    "Heat of Combustion, Net form (HCB2)": "2.437515E+06 kJ/kg-mol",
    "Van der Waals Volume (VDWV)": NaN,
    "Van der Waals Area (VDWA)": NaN,
    "UNIQUAC Ri Parameter (RI)": NaN,
    "UNIQUAC Qi Parameter (QI)": NaN,
    "Dipole Moment (DM)": "4.000000E-01 debye",
    "Radius of Gyration (GYRAD)": NaN,
    "Liquid Density (DENL)": "1.205367E-02 g-mol/cm^3",
    "Temperature of DENL (TDENL)": "2.930000E+02 K",
    "Heat of Vaporizaiton (HVAP)": "2.426700E+04 kJ/kg-mol",
    "Temperature of HVAP (THVAP)": "2.840000E+02 K",
    "Surface Tension (SRF)": "1.596000E+01 dyn/cm",
    "Temperature of SRF (TSRF)": "2.982000E+02 K",
    "Dielectric Constant (DIEL)": NaN,
    "Temperature of DIEL (TDIEL)": NaN,
    "Refractive Index (RFI)": NaN,
    "Temperature of RFI (TRFI)": NaN,
    "Lower Flammability Limit(FLL)": NaN,
    "Upper Flammability Limit(FLU)": NaN,
    "Flash Point (Open Cup Method)": NaN,
    "Flash Point (Closed Cup Method)": NaN,
    "Autoignition Temperature (AIGT)": NaN,
    "NFPA Rating (Health)": NaN,
    "NFPA Rating (Fire)": NaN,
    "NFPA Rating (Safety)": NaN,
    "Class": "Unsaturated Hydrocarbons",
    "Subclass": "Alkadienes",
    "SMILES": "CC=C=C"
}