{
    "ID": "358",
    "Name": "1,3-BUTADIENE",
    "Synonyms": "TRANS-BUTADIENE, BIETHYLENE, BIVINYL",
    "CAS No.": "106-99-0",
    "Formula": "C4H6",
    "Molecular Wt. (WT)": "5.40914E+01",
    "Normal Boiling Point Temp. (TB)": "2.68740E+02 K",
    "Freezing Point Temp. (TF)": "1.64200E+02 K",
    "Triple Point Temp. (TT)": NaN,
    "Triple Point Press. (PT)": NaN,
    "Critical Temperature. (TC)": "4.25000E+02 K",
    "Critical Pressure (PC)": "4.32000E+03 kPa",
    "Critical Volume (VC)": "2.21000E-01 m^3/kg-mol",
    "Critical Compressibility (ZC)": "2.70178E-01",
    "Accentric Factor (ACCF)": "1.95000E-01",
    "Vapor Pressure": {
        "Equation Name": "KDB Correlation Equation",
        "Equation": "ln(Pvp) = A*ln(T) + B/T + C + D*T^2 where Pvp in kPa, T in K",
        "Coefficient A": "-8.474881E+00",
        "Coefficient B": "-4.611048E+03",
        "Coefficient C": "6.830691E+01",
        "Coefficient D": "1.219081E-05",
        "Coefficient E": NaN,
        "Coefficient F": NaN,
        "Coefficient G": NaN,
        "T range, from": "164.25 K",
        "T range, to": "425.37 K"
    },
    "Heat Capacity (Ideal Gas)": {
        "Equation Name": "Polynomial Equation",
        "Equation": "Cp = A + B*T + C*T^2 + D*T^3 + E*T^4  where Cp in kJ/kg-mol , T in K",
        "Coefficient A": "-7.870164E+00",
        "Coefficient B": "3.560057E-01",
        "Coefficient C": "-2.062597E-04",
        "Coefficient D": "1.290058E-08",
        "Coefficient E": "1.873677E-11",
        "Coefficient F": NaN,
        "Coefficient G": NaN,
        "T range, from": NaN,
        "T range, to": NaN
    },
    "Heat Capacity (Liquid)": {
        "Equation Name": "Polynomial Equation",
        "Equation": "Cp = A + B*T + C*T^2 + D*T^3  where T in K and Cp in kJ/kg-mol.K",
        "Coefficient A": "85.66152",
        "Coefficient B": ".237408",
        "Coefficient C": "-1.30382E-03",
        "Coefficient D": "3.109615E-06",
        "Coefficient E": NaN,
        "Coefficient F": NaN,
        "Coefficient G": NaN,
        "T range, from": "164.25 K",
        "T range, to": "393.15 K"
    },
    "Viscosity (Gas, Low P)": {
        "Equation Name": "Polynomial Equation",
        "Equation": "VISG = A + B*T + C*T^2 where T in K and VISG in cP",
        "Coefficient A": "-.001067",
        "Coefficient B": "3.432E-05",
        "Coefficient C": "-8.08E-09",
        "Coefficient D": "0",
        "Coefficient E": NaN,
        "Coefficient F": NaN,
        "Coefficient G": NaN,
        "T range, from": "273.15 K",
        "T range, to": "1273.15 K"
    },
    "Viscosity (Liquid)": {
        "Equation Name": "Quasipolynomial Equation",
        "Equation": "ln (VISL) = A + B/T + C*T + D*T^2  where T in K and VISL in cP.",
        "Coefficient A": "-6.072",
        "Coefficient B": "1000",
        "Coefficient C": ".00446",
        "Coefficient D": "-6.694E-06",
        "Coefficient E": NaN,
        "Coefficient F": NaN,
        "Coefficient G": NaN,
        "T range, from": "165.15 K",
        "T range, to": "425.15 K"
    },
    "Themal Conductivity (Gas, Low P)": {
        "Equation Name": "Polynomial Equation",
        "Equation": "THG = A + B*T + C*T^2 + D*T^3  where T in K and THG in W/m.K",
        "Coefficient A": "-.02844",
        "Coefficient B": ".0001255",
        "Coefficient C": "7.286E-08",
        "Coefficient D": "-5.109E-11",
        "Coefficient E": NaN,
        "Coefficient F": NaN,
        "Coefficient G": NaN,
        "T range, from": "273 K",
        "T range, to": "1270 K"
    },
    "Themal Conductivity (Liquid)": {
        "Equation Name": "Polynomial Equation",
        "Equation": "THL = A + B*T + C*T^2 + D*T^3  where T in K and THL in W/m.K",
        "Coefficient A": ".3007",
        "Coefficient B": "-.0007837",
        "Coefficient C": "4.916E-07",
        "Coefficient D": "0",
        "Coefficient E": NaN,
        "Coefficient F": NaN,
        "Coefficient G": NaN,
        "T range, from": "164 K",
        "T range, to": "393 K"
    },
    "Surface Tension": NaN,
    "Partial Molar Volume (VOLP)": "8.709000E-02 m^3/kg-mol",
    "Solubility Parameters (SOLP)": "1.419565E+04 (J/cm^3)^0.5",
    "SRK accentric factor (WSRK)": "1.934000E-01",
    "COSTALD Characteristic Volume (VSTAR)": "2.202000E-01 m^3/kg-mol",
    "Rackett parameter (ZRA)": "2.712000E-01",
    "Aniline Point (ANP)": NaN,
    "H(formation,ideal gas)at 25 C": "1.102000E+05 kJ/kg-mol",
    "G(formation,ideal gas) at 25 C": "1.508000E+05 kJ/kg-mol",
    "Heat of Combustion, Gross form (HCB1)": "2.520107E+06 kJ/kg-mol",
    "Heat of Combustion, Net form (HCB2)": "2.388060E+06 kJ/kg-mol",
    "Van der Waals Volume (VDWV)": NaN,
    "Van der Waals Area (VDWA)": NaN,
    "UNIQUAC Ri Parameter (RI)": "2.690800E+00",
    "UNIQUAC Qi Parameter (QI)": "2.352000E+00",
    "Dipole Moment (DM)": "0.000000E+00 debye",
    "Radius of Gyration (GYRAD)": NaN,
    "Liquid Density (DENL)": "1.148057E-02 g-mol/cm^3",
    "Temperature of DENL (TDENL)": "2.930000E+02 K",
    "Heat of Vaporizaiton (HVAP)": "2.246800E+04 kJ/kg-mol",
    "Temperature of HVAP (THVAP)": "2.687000E+02 K",
    "Surface Tension (SRF)": "2.070000E+01 dyn/cm",
    "Temperature of SRF (TSRF)": "2.332000E+02 K",
    "Dielectric Constant (DIEL)": NaN,
    "Temperature of DIEL (TDIEL)": NaN,
    "Refractive Index (RFI)": NaN,
    "Temperature of RFI (TRFI)": NaN,
    "Lower Flammability Limit(FLL)": "2.000000E+00 % in Air",
    "Upper Flammability Limit(FLU)": "1.150000E+01 % in Air",
    "Flash Point (Open Cup Method)": "1.970389E+02 K",
    "Flash Point (Closed Cup Method)": "1.970389E+02 K",
    "Autoignition Temperature (AIGT)": "6.931500E+02 K",
    "NFPA Rating (Health)": "2",
    "NFPA Rating (Fire)": "4",
    "NFPA Rating (Safety)": "2",
    "Class": "Unsaturated Hydrocarbons",
    "Subclass": "Alkadienes",
    "SMILES": "C=CC=C"
}