{
    "ID": "359",
    "Name": "1,2-PENTADIENE",
    "Synonyms": "ETHYLALLENE, 1-METHYL-2,3-BUTADIENE",
    "CAS No.": "591-95-7",
    "Formula": "C5H8",
    "Molecular Wt. (WT)": "6.81182E+01",
    "Normal Boiling Point Temp. (TB)": "3.18000E+02 K",
    "Freezing Point Temp. (TF)": "1.35900E+02 K",
    "Triple Point Temp. (TT)": NaN,
    "Triple Point Press. (PT)": NaN,
    "Critical Temperature. (TC)": "5.03000E+02 K",
    "Critical Pressure (PC)": "4.07000E+03 kPa",
    "Critical Volume (VC)": "2.76000E-01 m^3/kg-mol",
    "Critical Compressibility (ZC)": "2.68596E-01",
    "Accentric Factor (ACCF)": "1.73000E-01",
    "Vapor Pressure": {
        "Equation Name": "KDB Correlation Equation",
        "Equation": "ln(Pvp) = A*ln(T) + B/T + C + D*T^2 where Pvp in kPa, T in K",
        "Coefficient A": "-6.661886E+00",
        "Coefficient B": "-5.290472E+03",
        "Coefficient C": "5.924498E+01",
        "Coefficient D": "3.923163E-06",
        "Coefficient E": NaN,
        "Coefficient F": NaN,
        "Coefficient G": NaN,
        "T range, from": "135.89 K",
        "T range, to": "500.00 K"
    },
    "Heat Capacity (Ideal Gas)": {
        "Equation Name": "Polynomial Equation",
        "Equation": "Cp = A + B*T + C*T^2 + D*T^3 + E*T^4  where Cp in kJ/kg-mol , T in K",
        "Coefficient A": "8.826000E+00",
        "Coefficient B": "3.880000E-01",
        "Coefficient C": "-2.280000E-04",
        "Coefficient D": "5.246E-08",
        "Coefficient E": "0",
        "Coefficient F": NaN,
        "Coefficient G": NaN,
        "T range, from": NaN,
        "T range, to": NaN
    },
    "Heat Capacity (Liquid)": NaN,
    "Viscosity (Gas, Low P)": NaN,
    "Viscosity (Liquid)": NaN,
    "Themal Conductivity (Gas, Low P)": NaN,
    "Themal Conductivity (Liquid)": NaN,
    "Surface Tension": NaN,
    "Partial Molar Volume (VOLP)": NaN,
    "Solubility Parameters (SOLP)": "1.602431E+04 (J/cm^3)^0.5",
    "SRK accentric factor (WSRK)": "1.760000E-01",
    "COSTALD Characteristic Volume (VSTAR)": "2.692000E-01 m^3/kg-mol",
    "Rackett parameter (ZRA)": "2.677000E-01",
    "Aniline Point (ANP)": NaN,
    "H(formation,ideal gas)at 25 C": "1.457000E+05 kJ/kg-mol",
    "G(formation,ideal gas) at 25 C": "2.106000E+05 kJ/kg-mol",
    "Heat of Combustion, Gross form (HCB1)": "3.222768E+06 kJ/kg-mol",
    "Heat of Combustion, Net form (HCB2)": "3.046705E+06 kJ/kg-mol",
    "Van der Waals Volume (VDWV)": NaN,
    "Van der Waals Area (VDWA)": NaN,
    "UNIQUAC Ri Parameter (RI)": NaN,
    "UNIQUAC Qi Parameter (QI)": NaN,
    "Dipole Moment (DM)": NaN,
    "Radius of Gyration (GYRAD)": NaN,
    "Liquid Density (DENL)": "1.017349E-02 g-mol/cm^3",
    "Temperature of DENL (TDENL)": "2.930000E+02 K",
    "Heat of Vaporizaiton (HVAP)": "2.757300E+04 kJ/kg-mol",
    "Temperature of HVAP (THVAP)": "3.180000E+02 K",
    "Surface Tension (SRF)": "1.882000E+01 dyn/cm",
    "Temperature of SRF (TSRF)": "2.982000E+02 K",
    "Dielectric Constant (DIEL)": NaN,
    "Temperature of DIEL (TDIEL)": NaN,
    "Refractive Index (RFI)": "1.417730E+00",
    "Temperature of RFI (TRFI)": "2.981500E+02 K",
    "Lower Flammability Limit(FLL)": NaN,
    "Upper Flammability Limit(FLU)": NaN,
    "Flash Point (Open Cup Method)": NaN,
    "Flash Point (Closed Cup Method)": NaN,
    "Autoignition Temperature (AIGT)": NaN,
    "NFPA Rating (Health)": NaN,
    "NFPA Rating (Fire)": NaN,
    "NFPA Rating (Safety)": NaN,
    "Class": "Unsaturated Hydrocarbons",
    "Subclass": "Alkadienes",
    "SMILES": "CCC=C=C"
}