{
    "ID": "36",
    "Name": "3-METHYLPENTANE",
    "Synonyms": NaN,
    "CAS No.": "96-14-0",
    "Formula": "C6H14",
    "Molecular Wt. (WT)": "8.61766E+01",
    "Normal Boiling Point Temp. (TB)": "3.36420E+02 K",
    "Freezing Point Temp. (TF)": "1.10200E+02 K",
    "Triple Point Temp. (TT)": "1.10250E+02 K",
    "Triple Point Press. (PT)": NaN,
    "Critical Temperature. (TC)": "5.04600E+02 K",
    "Critical Pressure (PC)": "3.12000E+03 kPa",
    "Critical Volume (VC)": "3.68000E-01 m^3/kg-mol",
    "Critical Compressibility (ZC)": "2.73665E-01",
    "Accentric Factor (ACCF)": "2.70000E-01",
    "Vapor Pressure": {
        "Equation Name": "KDB Correlation Equation",
        "Equation": "ln(Pvp) = A*ln(T) + B/T + C + D*T^2 where Pvp in kPa, T in K",
        "Coefficient A": "-9.910256E+00",
        "Coefficient B": "-6.172956E+03",
        "Coefficient C": "7.956411E+01",
        "Coefficient D": "9.404931E-06",
        "Coefficient E": NaN,
        "Coefficient F": NaN,
        "Coefficient G": NaN,
        "T range, from": "110.25 K",
        "T range, to": "504.43 K"
    },
    "Heat Capacity (Ideal Gas)": {
        "Equation Name": "Polynomial Equation",
        "Equation": "Cp = A + B*T + C*T^2 + D*T^3 + E*T^4  where Cp in kJ/kg-mol , T in K",
        "Coefficient A": "-6.573755E-01",
        "Coefficient B": "5.266916E-01",
        "Coefficient C": "-1.566105E-04",
        "Coefficient D": "-7.53599E-08",
        "Coefficient E": "4.245054E-11",
        "Coefficient F": NaN,
        "Coefficient G": NaN,
        "T range, from": NaN,
        "T range, to": NaN
    },
    "Heat Capacity (Liquid)": NaN,
    "Viscosity (Gas, Low P)": NaN,
    "Viscosity (Liquid)": NaN,
    "Themal Conductivity (Gas, Low P)": NaN,
    "Themal Conductivity (Liquid)": NaN,
    "Surface Tension": NaN,
    "Partial Molar Volume (VOLP)": "1.306200E-01 m^3/kg-mol",
    "Solubility Parameters (SOLP)": "1.458225E+04 (J/cm^3)^0.5",
    "SRK accentric factor (WSRK)": "2.741000E-01",
    "COSTALD Characteristic Volume (VSTAR)": "3.663000E-01 m^3/kg-mol",
    "Rackett parameter (ZRA)": "2.690000E-01",
    "Aniline Point (ANP)": "3.424500E+02 K",
    "H(formation,ideal gas)at 25 C": "-1.717000E+05 kJ/kg-mol",
    "G(formation,ideal gas) at 25 C": "-2.140000E+03 kJ/kg-mol",
    "Heat of Combustion, Gross form (HCB1)": "4.159942E+06 kJ/kg-mol",
    "Heat of Combustion, Net form (HCB2)": "3.851832E+06 kJ/kg-mol",
    "Van der Waals Volume (VDWV)": NaN,
    "Van der Waals Area (VDWA)": NaN,
    "UNIQUAC Ri Parameter (RI)": 4.499,
    "UNIQUAC Qi Parameter (QI)": 3.852,
    "Dipole Moment (DM)": NaN,
    "Radius of Gyration (GYRAD)": NaN,
    "Liquid Density (DENL)": "7.705108E-03 g-mol/cm^3",
    "Temperature of DENL (TDENL)": "2.930000E+02 K",
    "Heat of Vaporizaiton (HVAP)": "2.807500E+04 kJ/kg-mol",
    "Temperature of HVAP (THVAP)": "3.364000E+02 K",
    "Surface Tension (SRF)": "1.761000E+01 dyn/cm",
    "Temperature of SRF (TSRF)": "2.982000E+02 K",
    "Dielectric Constant (DIEL)": NaN,
    "Temperature of DIEL (TDIEL)": NaN,
    "Refractive Index (RFI)": "1.373860E+00",
    "Temperature of RFI (TRFI)": "2.981500E+02 K",
    "Lower Flammability Limit(FLL)": NaN,
    "Upper Flammability Limit(FLU)": NaN,
    "Flash Point (Open Cup Method)": NaN,
    "Flash Point (Closed Cup Method)": NaN,
    "Autoignition Temperature (AIGT)": NaN,
    "NFPA Rating (Health)": 1.0,
    "NFPA Rating (Fire)": 3.0,
    "NFPA Rating (Safety)": NaN,
    "Class": "Paraffinic Hydrocarbons",
    "Subclass": "Branched Alkanes",
    "SMILES": "CCC(C)CC"
}