{
    "ID": "361",
    "Name": "TRANS-1,3-PENTADIENE",
    "Synonyms": "(E)-1,3-PENTADIENE, TRANS-PIPERYLENE, TRANS-1-METHYLBUTADIENE",
    "CAS No.": "2004-70-8",
    "Formula": "C5H8",
    "Molecular Wt. (WT)": "6.81182E+01",
    "Normal Boiling Point Temp. (TB)": "3.15100E+02 K",
    "Freezing Point Temp. (TF)": "1.85700E+02 K",
    "Triple Point Temp. (TT)": NaN,
    "Triple Point Press. (PT)": NaN,
    "Critical Temperature. (TC)": "4.96000E+02 K",
    "Critical Pressure (PC)": "3.99000E+03 kPa",
    "Critical Volume (VC)": "2.75000E-01 m^3/kg-mol",
    "Critical Compressibility (ZC)": "2.66065E-01",
    "Accentric Factor (ACCF)": "1.75000E-01",
    "Vapor Pressure": {
        "Equation Name": "KDB Correlation Equation",
        "Equation": "ln(Pvp) = A*ln(T) + B/T + C + D*T^2 where Pvp in kPa, T in K",
        "Coefficient A": "-5.680314E+00",
        "Coefficient B": "-4.987994E+03",
        "Coefficient C": "5.287408E+01",
        "Coefficient D": "2.527322E-06",
        "Coefficient E": NaN,
        "Coefficient F": NaN,
        "Coefficient G": NaN,
        "T range, from": "185.71 K",
        "T range, to": "500.00 K"
    },
    "Heat Capacity (Ideal Gas)": {
        "Equation Name": "Polynomial Equation",
        "Equation": "Cp = A + B*T + C*T^2 + D*T^3 + E*T^4  where Cp in kJ/kg-mol , T in K",
        "Coefficient A": "3.069000E+01",
        "Coefficient B": "2.811000E-01",
        "Coefficient C": "-6.711000E-05",
        "Coefficient D": "-2.352E-08",
        "Coefficient E": "0",
        "Coefficient F": NaN,
        "Coefficient G": NaN,
        "T range, from": NaN,
        "T range, to": NaN
    },
    "Heat Capacity (Liquid)": NaN,
    "Viscosity (Gas, Low P)": NaN,
    "Viscosity (Liquid)": NaN,
    "Themal Conductivity (Gas, Low P)": NaN,
    "Themal Conductivity (Liquid)": NaN,
    "Surface Tension": NaN,
    "Partial Molar Volume (VOLP)": "1.007800E-01 m^3/kg-mol",
    "Solubility Parameters (SOLP)": "1.515498E+04 (J/cm^3)^0.5",
    "SRK accentric factor (WSRK)": "1.830000E-01",
    "COSTALD Characteristic Volume (VSTAR)": "2.742000E-01 m^3/kg-mol",
    "Rackett parameter (ZRA)": NaN,
    "Aniline Point (ANP)": NaN,
    "H(formation,ideal gas)at 25 C": "7.787000E+04 kJ/kg-mol",
    "G(formation,ideal gas) at 25 C": "1.468000E+05 kJ/kg-mol",
    "Heat of Combustion, Gross form (HCB1)": "3.158711E+06 kJ/kg-mol",
    "Heat of Combustion, Net form (HCB2)": "2.982690E+06 kJ/kg-mol",
    "Van der Waals Volume (VDWV)": NaN,
    "Van der Waals Area (VDWA)": NaN,
    "UNIQUAC Ri Parameter (RI)": "3.363200E+00",
    "UNIQUAC Qi Parameter (QI)": "2.891000E+00",
    "Dipole Moment (DM)": "7.000000E-01 debye",
    "Radius of Gyration (GYRAD)": NaN,
    "Liquid Density (DENL)": "9.923926E-03 g-mol/cm^3",
    "Temperature of DENL (TDENL)": "2.930000E+02 K",
    "Heat of Vaporizaiton (HVAP)": "2.702900E+04 kJ/kg-mol",
    "Temperature of HVAP (THVAP)": "3.172000E+02 K",
    "Surface Tension (SRF)": "1.823000E+01 dyn/cm",
    "Temperature of SRF (TSRF)": "2.982000E+02 K",
    "Dielectric Constant (DIEL)": NaN,
    "Temperature of DIEL (TDIEL)": NaN,
    "Refractive Index (RFI)": "1.426690E+00",
    "Temperature of RFI (TRFI)": "2.981500E+02 K",
    "Lower Flammability Limit(FLL)": NaN,
    "Upper Flammability Limit(FLU)": NaN,
    "Flash Point (Open Cup Method)": NaN,
    "Flash Point (Closed Cup Method)": NaN,
    "Autoignition Temperature (AIGT)": NaN,
    "NFPA Rating (Health)": NaN,
    "NFPA Rating (Fire)": NaN,
    "NFPA Rating (Safety)": NaN,
    "Class": "Unsaturated Hydrocarbons",
    "Subclass": "Alkadienes",
    "SMILES": "C/C=C/C=C"
}