{
    "ID": "364",
    "Name": "3-METHYL-1,2-BUTADIENE",
    "Synonyms": "1,1-DIMETHYLALLENE, 1,1-DIMETHYLALLYLENE, 2-METHYL-2,3-BUTADIENE",
    "CAS No.": "598-25-4",
    "Formula": "C5H8",
    "Molecular Wt. (WT)": "6.81182E+01",
    "Normal Boiling Point Temp. (TB)": "3.14000E+02 K",
    "Freezing Point Temp. (TF)": "1.59500E+02 K",
    "Triple Point Temp. (TT)": NaN,
    "Triple Point Press. (PT)": NaN,
    "Critical Temperature. (TC)": "4.96000E+02 K",
    "Critical Pressure (PC)": "4.11000E+03 kPa",
    "Critical Volume (VC)": "2.67000E-01 m^3/kg-mol",
    "Critical Compressibility (ZC)": "2.66094E-01",
    "Accentric Factor (ACCF)": "1.60000E-01",
    "Vapor Pressure": {
        "Equation Name": "KDB Correlation Equation",
        "Equation": "ln(Pvp) = A*ln(T) + B/T + C + D*T^2 where Pvp in kPa, T in K",
        "Coefficient A": "-6.857497E+00",
        "Coefficient B": "-5.231966E+03",
        "Coefficient C": "6.022537E+01",
        "Coefficient D": "4.868272E-06",
        "Coefficient E": NaN,
        "Coefficient F": NaN,
        "Coefficient G": NaN,
        "T range, from": "159.53 K",
        "T range, to": "496.00 K"
    },
    "Heat Capacity (Ideal Gas)": {
        "Equation Name": "Polynomial Equation",
        "Equation": "Cp = A + B*T + C*T^2 + D*T^3 + E*T^4  where Cp in kJ/kg-mol , T in K",
        "Coefficient A": "1.469000E+01",
        "Coefficient B": "3.598000E-01",
        "Coefficient C": "-1.976000E-04",
        "Coefficient D": "4.262E-08",
        "Coefficient E": "0",
        "Coefficient F": NaN,
        "Coefficient G": NaN,
        "T range, from": NaN,
        "T range, to": NaN
    },
    "Heat Capacity (Liquid)": NaN,
    "Viscosity (Gas, Low P)": NaN,
    "Viscosity (Liquid)": NaN,
    "Themal Conductivity (Gas, Low P)": NaN,
    "Themal Conductivity (Liquid)": NaN,
    "Surface Tension": NaN,
    "Partial Molar Volume (VOLP)": NaN,
    "Solubility Parameters (SOLP)": "1.575840E+04 (J/cm^3)^0.5",
    "SRK accentric factor (WSRK)": NaN,
    "COSTALD Characteristic Volume (VSTAR)": NaN,
    "Rackett parameter (ZRA)": NaN,
    "Aniline Point (ANP)": NaN,
    "H(formation,ideal gas)at 25 C": "1.298000E+05 kJ/kg-mol",
    "G(formation,ideal gas) at 25 C": "1.987000E+05 kJ/kg-mol",
    "Heat of Combustion, Gross form (HCB1)": "3.212057E+06 kJ/kg-mol",
    "Heat of Combustion, Net form (HCB2)": "3.035994E+06 kJ/kg-mol",
    "Van der Waals Volume (VDWV)": NaN,
    "Van der Waals Area (VDWA)": NaN,
    "UNIQUAC Ri Parameter (RI)": NaN,
    "UNIQUAC Qi Parameter (QI)": NaN,
    "Dipole Moment (DM)": NaN,
    "Radius of Gyration (GYRAD)": NaN,
    "Liquid Density (DENL)": "1.007073E-02 g-mol/cm^3",
    "Temperature of DENL (TDENL)": "2.930000E+02 K",
    "Heat of Vaporizaiton (HVAP)": "2.723800E+04 kJ/kg-mol",
    "Temperature of HVAP (THVAP)": "3.140000E+02 K",
    "Surface Tension (SRF)": "1.854000E+01 dyn/cm",
    "Temperature of SRF (TSRF)": "2.982000E+02 K",
    "Dielectric Constant (DIEL)": NaN,
    "Temperature of DIEL (TDIEL)": NaN,
    "Refractive Index (RFI)": "1.416920E+00",
    "Temperature of RFI (TRFI)": "2.981500E+02 K",
    "Lower Flammability Limit(FLL)": NaN,
    "Upper Flammability Limit(FLU)": NaN,
    "Flash Point (Open Cup Method)": NaN,
    "Flash Point (Closed Cup Method)": NaN,
    "Autoignition Temperature (AIGT)": NaN,
    "NFPA Rating (Health)": NaN,
    "NFPA Rating (Fire)": NaN,
    "NFPA Rating (Safety)": NaN,
    "Class": "Unsaturated Hydrocarbons",
    "Subclass": "Alkadienes",
    "SMILES": "CC(=C=C)C"
}