{
    "ID": "365",
    "Name": "ISOPRENE",
    "Synonyms": "2-METHYL-1,3-BUTADIENE, ISOPENTADIENE, 2-METHYLBUTADIENE",
    "CAS No.": "78-79-5",
    "Formula": "C5H8",
    "Molecular Wt. (WT)": "6.81182E+01",
    "Normal Boiling Point Temp. (TB)": "3.07200E+02 K",
    "Freezing Point Temp. (TF)": "1.27200E+02 K",
    "Triple Point Temp. (TT)": NaN,
    "Triple Point Press. (PT)": NaN,
    "Critical Temperature. (TC)": "4.84000E+02 K",
    "Critical Pressure (PC)": "3.85000E+03 kPa",
    "Critical Volume (VC)": "2.76000E-01 m^3/kg-mol",
    "Critical Compressibility (ZC)": "2.64051E-01",
    "Accentric Factor (ACCF)": "1.64000E-01",
    "Vapor Pressure": {
        "Equation Name": "KDB Correlation Equation",
        "Equation": "ln(Pvp) = A*ln(T) + B/T + C + D*T^2 where Pvp in kPa, T in K",
        "Coefficient A": "-9.407493E+00",
        "Coefficient B": "-5.608309E+03",
        "Coefficient C": "7.592852E+01",
        "Coefficient D": "8.787756E-06",
        "Coefficient E": NaN,
        "Coefficient F": NaN,
        "Coefficient G": NaN,
        "T range, from": "255.15 K",
        "T range, to": "483.30 K"
    },
    "Heat Capacity (Ideal Gas)": {
        "Equation Name": "Polynomial Equation",
        "Equation": "Cp = A + B*T + C*T^2 + D*T^3 + E*T^4  where Cp in kJ/kg-mol , T in K",
        "Coefficient A": "2.281887E+01",
        "Coefficient B": "2.356265E-01",
        "Coefficient C": "2.032986E-04",
        "Coefficient D": "-3.932193E-07",
        "Coefficient E": "1.523411E-10",
        "Coefficient F": NaN,
        "Coefficient G": NaN,
        "T range, from": NaN,
        "T range, to": NaN
    },
    "Heat Capacity (Liquid)": {
        "Equation Name": "Polynomial Equation",
        "Equation": "Cp = A + B*T + C*T^2 + D*T^3  where T in K and Cp in kJ/kg-mol.K",
        "Coefficient A": "42.38047",
        "Coefficient B": ".6603602",
        "Coefficient C": "-2.590425E-03",
        "Coefficient D": "3.89319E-06",
        "Coefficient E": NaN,
        "Coefficient F": NaN,
        "Coefficient G": NaN,
        "T range, from": "127.15 K",
        "T range, to": "473.15 K"
    },
    "Viscosity (Gas, Low P)": {
        "Equation Name": "Polynomial Equation",
        "Equation": "VISG = A + B*T + C*T^2 where T in K and VISG in cP",
        "Coefficient A": "-4.474E-05",
        "Coefficient B": "2.756E-05",
        "Coefficient C": "-4.978E-09",
        "Coefficient D": "0",
        "Coefficient E": NaN,
        "Coefficient F": NaN,
        "Coefficient G": NaN,
        "T range, from": "273.15 K",
        "T range, to": "1273.15 K"
    },
    "Viscosity (Liquid)": NaN,
    "Themal Conductivity (Gas, Low P)": {
        "Equation Name": "Polynomial Equation",
        "Equation": "THG = A + B*T + C*T^2 + D*T^3  where T in K and THG in W/m.K",
        "Coefficient A": "-.02363",
        "Coefficient B": ".0001101",
        "Coefficient C": "5.486E-08",
        "Coefficient D": "-3.174E-11",
        "Coefficient E": NaN,
        "Coefficient F": NaN,
        "Coefficient G": NaN,
        "T range, from": "273 K",
        "T range, to": "1270 K"
    },
    "Themal Conductivity (Liquid)": {
        "Equation Name": "Polynomial Equation",
        "Equation": "THL = A + B*T + C*T^2 + D*T^3  where T in K and THL in W/m.K",
        "Coefficient A": ".2215",
        "Coefficient B": "-.000317",
        "Coefficient C": "-5.527E-08",
        "Coefficient D": "0",
        "Coefficient E": NaN,
        "Coefficient F": NaN,
        "Coefficient G": NaN,
        "T range, from": "127 K",
        "T range, to": "433 K"
    },
    "Surface Tension": NaN,
    "Partial Molar Volume (VOLP)": "1.000400E-01 m^3/kg-mol",
    "Solubility Parameters (SOLP)": "1.444111E+04 (J/cm^3)^0.5",
    "SRK accentric factor (WSRK)": "1.700000E-01",
    "COSTALD Characteristic Volume (VSTAR)": "2.691000E-01 m^3/kg-mol",
    "Rackett parameter (ZRA)": "2.652000E-01",
    "Aniline Point (ANP)": NaN,
    "H(formation,ideal gas)at 25 C": "7.578000E+04 kJ/kg-mol",
    "G(formation,ideal gas) at 25 C": "1.460000E+05 kJ/kg-mol",
    "Heat of Combustion, Gross form (HCB1)": "3.159924E+06 kJ/kg-mol",
    "Heat of Combustion, Net form (HCB2)": "2.983861E+06 kJ/kg-mol",
    "Van der Waals Volume (VDWV)": NaN,
    "Van der Waals Area (VDWA)": NaN,
    "UNIQUAC Ri Parameter (RI)": "3.363800E+00",
    "UNIQUAC Qi Parameter (QI)": "3.012000E+00",
    "Dipole Moment (DM)": "3.000000E-01 debye",
    "Radius of Gyration (GYRAD)": "3.300000E+00",
    "Liquid Density (DENL)": "9.997328E-03 g-mol/cm^3",
    "Temperature of DENL (TDENL)": "2.930000E+02 K",
    "Heat of Vaporizaiton (HVAP)": "2.606600E+04 kJ/kg-mol",
    "Temperature of HVAP (THVAP)": "3.072000E+02 K",
    "Surface Tension (SRF)": "1.613000E+01 dyn/cm",
    "Temperature of SRF (TSRF)": "2.982000E+02 K",
    "Dielectric Constant (DIEL)": NaN,
    "Temperature of DIEL (TDIEL)": NaN,
    "Refractive Index (RFI)": "1.418520E+00",
    "Temperature of RFI (TRFI)": "2.981500E+02 K",
    "Lower Flammability Limit(FLL)": "2.000000E+00 % in Air",
    "Upper Flammability Limit(FLU)": "9.000000E+00 % in Air",
    "Flash Point (Open Cup Method)": "2.192611E+02 K",
    "Flash Point (Closed Cup Method)": NaN,
    "Autoignition Temperature (AIGT)": "4.931500E+02 K",
    "NFPA Rating (Health)": "2",
    "NFPA Rating (Fire)": "4",
    "NFPA Rating (Safety)": "1",
    "Class": "Unsaturated Hydrocarbons",
    "Subclass": "Alkadienes",
    "SMILES": "CC(=C)C=C"
}