{
    "ID": "37",
    "Name": "2,2-DIMETHYLBUTANE",
    "Synonyms": "NEOHEXANE",
    "CAS No.": "75-83-2",
    "Formula": "C6H14",
    "Molecular Wt. (WT)": "8.61766E+01",
    "Normal Boiling Point Temp. (TB)": "3.22880E+02 K",
    "Freezing Point Temp. (TF)": "1.74000E+02 K",
    "Triple Point Temp. (TT)": NaN,
    "Triple Point Press. (PT)": NaN,
    "Critical Temperature. (TC)": "4.89000E+02 K",
    "Critical Pressure (PC)": "3.10000E+03 kPa",
    "Critical Volume (VC)": "3.58000E-01 m^3/kg-mol",
    "Critical Compressibility (ZC)": "2.72960E-01",
    "Accentric Factor (ACCF)": "2.32000E-01",
    "Vapor Pressure": {
        "Equation Name": "KDB Correlation Equation",
        "Equation": "ln(Pvp) = A*ln(T) + B/T + C + D*T^2 where Pvp in kPa, T in K",
        "Coefficient A": "-9.181045E+00",
        "Coefficient B": "-5.642850E+03",
        "Coefficient C": "7.413746E+01",
        "Coefficient D": "9.587927E-06",
        "Coefficient E": NaN,
        "Coefficient F": NaN,
        "Coefficient G": NaN,
        "T range, from": "174.28 K",
        "T range, to": "489.00 K"
    },
    "Heat Capacity (Ideal Gas)": {
        "Equation Name": "Polynomial Equation",
        "Equation": "Cp = A + B*T + C*T^2 + D*T^3 + E*T^4  where Cp in kJ/kg-mol , T in K",
        "Coefficient A": "8.347442E+00",
        "Coefficient B": "4.667030E-01",
        "Coefficient C": "-8.735848E-06",
        "Coefficient D": "-1.978618E-07",
        "Coefficient E": "7.957393E-11",
        "Coefficient F": NaN,
        "Coefficient G": NaN,
        "T range, from": NaN,
        "T range, to": NaN
    },
    "Heat Capacity (Liquid)": NaN,
    "Viscosity (Gas, Low P)": NaN,
    "Viscosity (Liquid)": {
        "Equation Name": "Andrade Equation",
        "Equation": "ln (VISL) = A + B/ T  where T in K and VISL in cP.",
        "Coefficient A": "-4.454",
        "Coefficient B": "1010",
        "Coefficient C": "0",
        "Coefficient D": "0",
        "Coefficient E": NaN,
        "Coefficient F": NaN,
        "Coefficient G": NaN,
        "T range, from": "273.15 K",
        "T range, to": "313.15 K"
    },
    "Themal Conductivity (Gas, Low P)": NaN,
    "Themal Conductivity (Liquid)": NaN,
    "Surface Tension": NaN,
    "Partial Molar Volume (VOLP)": "1.337200E-01 m^3/kg-mol",
    "Solubility Parameters (SOLP)": "1.366178E+04 (J/cm^3)^0.5",
    "SRK accentric factor (WSRK)": "2.330000E-01",
    "COSTALD Characteristic Volume (VSTAR)": "3.634000E-01 m^3/kg-mol",
    "Rackett parameter (ZRA)": "2.733000E-01",
    "Aniline Point (ANP)": "3.543500E+02 K",
    "H(formation,ideal gas)at 25 C": "-1.857000E+05 kJ/kg-mol",
    "G(formation,ideal gas) at 25 C": "-9.630000E+03 kJ/kg-mol",
    "Heat of Combustion, Gross form (HCB1)": "4.148520E+06 kJ/kg-mol",
    "Heat of Combustion, Net form (HCB2)": "3.840410E+06 kJ/kg-mol",
    "Van der Waals Volume (VDWV)": NaN,
    "Van der Waals Area (VDWA)": NaN,
    "UNIQUAC Ri Parameter (RI)": 4.4983,
    "UNIQUAC Qi Parameter (QI)": 3.932,
    "Dipole Moment (DM)": NaN,
    "Radius of Gyration (GYRAD)": NaN,
    "Liquid Density (DENL)": "7.531047E-03 g-mol/cm^3",
    "Temperature of DENL (TDENL)": "2.930000E+02 K",
    "Heat of Vaporizaiton (HVAP)": "2.630500E+04 kJ/kg-mol",
    "Temperature of HVAP (THVAP)": "3.229000E+02 K",
    "Surface Tension (SRF)": "1.581000E+01 dyn/cm",
    "Temperature of SRF (TSRF)": "2.982000E+02 K",
    "Dielectric Constant (DIEL)": NaN,
    "Temperature of DIEL (TDIEL)": NaN,
    "Refractive Index (RFI)": "1.365950E+00",
    "Temperature of RFI (TRFI)": "2.981500E+02 K",
    "Lower Flammability Limit(FLL)": NaN,
    "Upper Flammability Limit(FLU)": NaN,
    "Flash Point (Open Cup Method)": NaN,
    "Flash Point (Closed Cup Method)": NaN,
    "Autoignition Temperature (AIGT)": NaN,
    "NFPA Rating (Health)": 1.0,
    "NFPA Rating (Fire)": 3.0,
    "NFPA Rating (Safety)": NaN,
    "Class": "Paraffinic Hydrocarbons",
    "Subclass": "Branched Alkanes",
    "SMILES": "CCC(C)(C)C"
}