{
    "ID": "38",
    "Name": "2,3-DIMETHYLBUTANE",
    "Synonyms": "BIISOPROPYL, DIISOPROPYL",
    "CAS No.": "79-29-8",
    "Formula": "C6H14",
    "Molecular Wt. (WT)": "8.61766E+01",
    "Normal Boiling Point Temp. (TB)": "3.31130E+02 K",
    "Freezing Point Temp. (TF)": "1.44300E+02 K",
    "Triple Point Temp. (TT)": NaN,
    "Triple Point Press. (PT)": NaN,
    "Critical Temperature. (TC)": "5.00000E+02 K",
    "Critical Pressure (PC)": "3.15000E+03 kPa",
    "Critical Volume (VC)": "3.61000E-01 m^3/kg-mol",
    "Critical Compressibility (ZC)": "2.73534E-01",
    "Accentric Factor (ACCF)": "2.47000E-01",
    "Vapor Pressure": {
        "Equation Name": "KDB Correlation Equation",
        "Equation": "ln(Pvp) = A*ln(T) + B/T + C + D*T^2 where Pvp in kPa, T in K",
        "Coefficient A": "-9.398567E+00",
        "Coefficient B": "-5.892273E+03",
        "Coefficient C": "7.594423E+01",
        "Coefficient D": "9.189262E-06",
        "Coefficient E": NaN,
        "Coefficient F": NaN,
        "Coefficient G": NaN,
        "T range, from": "145.19 K",
        "T range, to": "499.98 K"
    },
    "Heat Capacity (Ideal Gas)": {
        "Equation Name": "Polynomial Equation",
        "Equation": "Cp = A + B*T + C*T^2 + D*T^3 + E*T^4  where Cp in kJ/kg-mol , T in K",
        "Coefficient A": "-4.311546E+01",
        "Coefficient B": "7.800217E-01",
        "Coefficient C": "-6.244150E-04",
        "Coefficient D": "2.458405E-07",
        "Coefficient E": "-2.527981E-11",
        "Coefficient F": NaN,
        "Coefficient G": NaN,
        "T range, from": NaN,
        "T range, to": NaN
    },
    "Heat Capacity (Liquid)": NaN,
    "Viscosity (Gas, Low P)": NaN,
    "Viscosity (Liquid)": {
        "Equation Name": "Andrade Equation",
        "Equation": "ln (VISL) = A + B/ T  where T in K and VISL in cP.",
        "Coefficient A": "-4.469",
        "Coefficient B": "1023",
        "Coefficient C": "0",
        "Coefficient D": "0",
        "Coefficient E": NaN,
        "Coefficient F": NaN,
        "Coefficient G": NaN,
        "T range, from": "273.15 K",
        "T range, to": "313.15 K"
    },
    "Themal Conductivity (Gas, Low P)": NaN,
    "Themal Conductivity (Liquid)": NaN,
    "Surface Tension": NaN,
    "Partial Molar Volume (VOLP)": "1.311600E-01 m^3/kg-mol",
    "Solubility Parameters (SOLP)": "1.425497E+04 (J/cm^3)^0.5",
    "SRK accentric factor (WSRK)": "2.477000E-01",
    "COSTALD Characteristic Volume (VSTAR)": "3.610000E-01 m^3/kg-mol",
    "Rackett parameter (ZRA)": "2.705000E-01",
    "Aniline Point (ANP)": "3.450500E+02 K",
    "H(formation,ideal gas)at 25 C": "-1.779000E+05 kJ/kg-mol",
    "G(formation,ideal gas) at 25 C": "-4.100000E+03 kJ/kg-mol",
    "Heat of Combustion, Gross form (HCB1)": "4.154921E+06 kJ/kg-mol",
    "Heat of Combustion, Net form (HCB2)": "3.846811E+06 kJ/kg-mol",
    "Van der Waals Volume (VDWV)": NaN,
    "Van der Waals Area (VDWA)": NaN,
    "UNIQUAC Ri Parameter (RI)": 4.4982,
    "UNIQUAC Qi Parameter (QI)": 3.848,
    "Dipole Moment (DM)": NaN,
    "Radius of Gyration (GYRAD)": 3.521,
    "Liquid Density (DENL)": "7.681900E-03 g-mol/cm^3",
    "Temperature of DENL (TDENL)": "2.930000E+02 K",
    "Heat of Vaporizaiton (HVAP)": "2.728000E+04 kJ/kg-mol",
    "Temperature of HVAP (THVAP)": "3.312000E+02 K",
    "Surface Tension (SRF)": "1.688000E+01 dyn/cm",
    "Temperature of SRF (TSRF)": "2.982000E+02 K",
    "Dielectric Constant (DIEL)": NaN,
    "Temperature of DIEL (TDIEL)": NaN,
    "Refractive Index (RFI)": "1.372310E+00",
    "Temperature of RFI (TRFI)": "2.981500E+02 K",
    "Lower Flammability Limit(FLL)": NaN,
    "Upper Flammability Limit(FLU)": NaN,
    "Flash Point (Open Cup Method)": NaN,
    "Flash Point (Closed Cup Method)": NaN,
    "Autoignition Temperature (AIGT)": NaN,
    "NFPA Rating (Health)": 1.0,
    "NFPA Rating (Fire)": 3.0,
    "NFPA Rating (Safety)": NaN,
    "Class": "Paraffinic Hydrocarbons",
    "Subclass": "Branched Alkanes",
    "SMILES": "CC(C)C(C)C"
}