{
    "ID": "39",
    "Name": "2-METHYLHEXANE",
    "Synonyms": "ISOHEPTANE",
    "CAS No.": "591-76-4",
    "Formula": "C7H16",
    "Molecular Wt. (WT)": "1.00203E+02",
    "Normal Boiling Point Temp. (TB)": "3.63190E+02 K",
    "Freezing Point Temp. (TF)": "1.54900E+02 K",
    "Triple Point Temp. (TT)": NaN,
    "Triple Point Press. (PT)": NaN,
    "Critical Temperature. (TC)": "5.30400E+02 K",
    "Critical Pressure (PC)": "2.74000E+03 kPa",
    "Critical Volume (VC)": "4.21000E-01 m^3/kg-mol",
    "Critical Compressibility (ZC)": "2.61573E-01",
    "Accentric Factor (ACCF)": "3.29000E-01",
    "Vapor Pressure": {
        "Equation Name": "KDB Correlation Equation",
        "Equation": "ln(Pvp) = A*ln(T) + B/T + C + D*T^2 where Pvp in kPa, T in K",
        "Coefficient A": "-1.177224E+01",
        "Coefficient B": "-7.225272E+03",
        "Coefficient C": "9.260321E+01",
        "Coefficient D": "9.942134E-06",
        "Coefficient E": NaN,
        "Coefficient F": NaN,
        "Coefficient G": NaN,
        "T range, from": "154.90 K",
        "T range, to": "530.37 K"
    },
    "Heat Capacity (Ideal Gas)": {
        "Equation Name": "Polynomial Equation",
        "Equation": "Cp = A + B*T + C*T^2 + D*T^3 + E*T^4  where Cp in kJ/kg-mol , T in K",
        "Coefficient A": "4.809020E+00",
        "Coefficient B": "5.882827E-01",
        "Coefficient C": "-1.248414E-04",
        "Coefficient D": "-1.559704E-07",
        "Coefficient E": "7.486441E-11",
        "Coefficient F": NaN,
        "Coefficient G": NaN,
        "T range, from": NaN,
        "T range, to": NaN
    },
    "Heat Capacity (Liquid)": NaN,
    "Viscosity (Gas, Low P)": NaN,
    "Viscosity (Liquid)": {
        "Equation Name": "Andrade Equation",
        "Equation": "ln (VISL) = A + B/ T  where T in K and VISL in cP.",
        "Coefficient A": "-4.27",
        "Coefficient B": "961.2001",
        "Coefficient C": "0",
        "Coefficient D": "0",
        "Coefficient E": NaN,
        "Coefficient F": NaN,
        "Coefficient G": NaN,
        "T range, from": "273.15 K",
        "T range, to": "373.15 K"
    },
    "Themal Conductivity (Gas, Low P)": NaN,
    "Themal Conductivity (Liquid)": NaN,
    "Surface Tension": NaN,
    "Partial Molar Volume (VOLP)": NaN,
    "Solubility Parameters (SOLP)": "1.474588E+04 (J/cm^3)^0.5",
    "SRK accentric factor (WSRK)": "3.310000E-01",
    "COSTALD Characteristic Volume (VSTAR)": "4.274000E-01 m^3/kg-mol",
    "Rackett parameter (ZRA)": "2.638000E-01",
    "Aniline Point (ANP)": "3.471500E+02 K",
    "H(formation,ideal gas)at 25 C": "-1.951000E+05 kJ/kg-mol",
    "G(formation,ideal gas) at 25 C": "3.220000E+03 kJ/kg-mol",
    "Heat of Combustion, Gross form (HCB1)": "4.811475E+06 kJ/kg-mol",
    "Heat of Combustion, Net form (HCB2)": "4.459350E+06 kJ/kg-mol",
    "Van der Waals Volume (VDWV)": NaN,
    "Van der Waals Area (VDWA)": NaN,
    "UNIQUAC Ri Parameter (RI)": NaN,
    "UNIQUAC Qi Parameter (QI)": NaN,
    "Dipole Moment (DM)": "0.000000E+00 debye",
    "Radius of Gyration (GYRAD)": NaN,
    "Liquid Density (DENL)": "6.776217E-03 g-mol/cm^3",
    "Temperature of DENL (TDENL)": "2.930000E+02 K",
    "Heat of Vaporizaiton (HVAP)": "3.066900E+04 kJ/kg-mol",
    "Temperature of HVAP (THVAP)": "3.632000E+02 K",
    "Surface Tension (SRF)": "1.881000E+01 dyn/cm",
    "Temperature of SRF (TSRF)": "2.982000E+02 K",
    "Dielectric Constant (DIEL)": NaN,
    "Temperature of DIEL (TDIEL)": NaN,
    "Refractive Index (RFI)": "1.382270E+00",
    "Temperature of RFI (TRFI)": "2.981500E+02 K",
    "Lower Flammability Limit(FLL)": NaN,
    "Upper Flammability Limit(FLU)": NaN,
    "Flash Point (Open Cup Method)": NaN,
    "Flash Point (Closed Cup Method)": NaN,
    "Autoignition Temperature (AIGT)": NaN,
    "NFPA Rating (Health)": NaN,
    "NFPA Rating (Fire)": NaN,
    "NFPA Rating (Safety)": NaN,
    "Class": "Paraffinic Hydrocarbons",
    "Subclass": "Branched Alkanes",
    "SMILES": "CCCCC(C)C"
}