{
    "ID": "399",
    "Name": "ACETYLENE",
    "Synonyms": "ETHYNE, ACETYLEN, NARCYLEN",
    "CAS No.": "74-86-2",
    "Formula": "C2H2",
    "Molecular Wt. (WT)": "2.60378E+01",
    "Normal Boiling Point Temp. (TB)": "1.88430E+02 K",
    "Freezing Point Temp. (TF)": "1.92400E+02 K",
    "Triple Point Temp. (TT)": NaN,
    "Triple Point Press. (PT)": NaN,
    "Critical Temperature. (TC)": "3.08300E+02 K",
    "Critical Pressure (PC)": "6.13800E+03 kPa",
    "Critical Volume (VC)": "1.12200E-01 m^3/kg-mol",
    "Critical Compressibility (ZC)": "2.68664E-01",
    "Accentric Factor (ACCF)": "1.90000E-01",
    "Vapor Pressure": {
        "Equation Name": "KDB Correlation Equation",
        "Equation": "ln(Pvp) = A*ln(T) + B/T + C + D*T^2 where Pvp in kPa, T in K",
        "Coefficient A": "-1.059838E+01",
        "Coefficient B": "-3.711410E+03",
        "Coefficient C": "7.883467E+01",
        "Coefficient D": "2.805366E-05",
        "Coefficient E": NaN,
        "Coefficient F": NaN,
        "Coefficient G": NaN,
        "T range, from": "189.00 K",
        "T range, to": "308.32 K"
    },
    "Heat Capacity (Ideal Gas)": {
        "Equation Name": "Polynomial Equation",
        "Equation": "Cp = A + B*T + C*T^2 + D*T^3 + E*T^4  where Cp in kJ/kg-mol , T in K",
        "Coefficient A": "8.709412E+00",
        "Coefficient B": "1.763965E-01",
        "Coefficient C": "-2.419388E-04",
        "Coefficient D": "1.689089E-07",
        "Coefficient E": "-4.436627E-11",
        "Coefficient F": NaN,
        "Coefficient G": NaN,
        "T range, from": NaN,
        "T range, to": NaN
    },
    "Heat Capacity (Liquid)": NaN,
    "Viscosity (Gas, Low P)": NaN,
    "Viscosity (Liquid)": NaN,
    "Themal Conductivity (Gas, Low P)": NaN,
    "Themal Conductivity (Liquid)": NaN,
    "Surface Tension": NaN,
    "Partial Molar Volume (VOLP)": NaN,
    "Solubility Parameters (SOLP)": "1.090242E+04 (J/cm^3)^0.5",
    "SRK accentric factor (WSRK)": "2.049000E-01",
    "COSTALD Characteristic Volume (VSTAR)": "1.128000E-01 m^3/kg-mol",
    "Rackett parameter (ZRA)": "2.709000E-01",
    "Aniline Point (ANP)": NaN,
    "H(formation,ideal gas)at 25 C": "2.269000E+05 kJ/kg-mol",
    "G(formation,ideal gas) at 25 C": "2.093000E+05 kJ/kg-mol",
    "Heat of Combustion, Gross form (HCB1)": NaN,
    "Heat of Combustion, Net form (HCB2)": NaN,
    "Van der Waals Volume (VDWV)": NaN,
    "Van der Waals Area (VDWA)": NaN,
    "UNIQUAC Ri Parameter (RI)": "1.520000E+00",
    "UNIQUAC Qi Parameter (QI)": "1.390000E+00",
    "Dipole Moment (DM)": "0.000000E+00 debye",
    "Radius of Gyration (GYRAD)": "1.095000E+00",
    "Liquid Density (DENL)": "2.361951E-02 g-mol/cm^3",
    "Temperature of DENL (TDENL)": "1.890000E+02 K",
    "Heat of Vaporizaiton (HVAP)": "1.667400E+04 kJ/kg-mol",
    "Temperature of HVAP (THVAP)": "1.924000E+02 K",
    "Surface Tension (SRF)": "1.697000E+01 dyn/cm",
    "Temperature of SRF (TSRF)": "2.032000E+02 K",
    "Dielectric Constant (DIEL)": NaN,
    "Temperature of DIEL (TDIEL)": NaN,
    "Refractive Index (RFI)": NaN,
    "Temperature of RFI (TRFI)": NaN,
    "Lower Flammability Limit(FLL)": "2.500000E+00 % in Air",
    "Upper Flammability Limit(FLU)": "8.000000E+01 % in Air",
    "Flash Point (Open Cup Method)": NaN,
    "Flash Point (Closed Cup Method)": NaN,
    "Autoignition Temperature (AIGT)": "5.781500E+02 K",
    "NFPA Rating (Health)": "1",
    "NFPA Rating (Fire)": "4",
    "NFPA Rating (Safety)": "3",
    "Class": "Unsaturated Hydrocarbons",
    "Subclass": "Alkynes",
    "SMILES": "C#C"
}