{
    "ID": "4",
    "Name": "N-BUTANE",
    "Synonyms": "DIETHYL, BUTANE",
    "CAS No.": "106-97-8",
    "Formula": "C4H10",
    "Molecular Wt. (WT)": "5.81230E+01",
    "Normal Boiling Point Temp. (TB)": "2.72600E+02 K",
    "Freezing Point Temp. (TF)": "1.34860E+02 K",
    "Triple Point Temp. (TT)": "1.34860E+02 K",
    "Triple Point Press. (PT)": NaN,
    "Critical Temperature. (TC)": "4.25120E+02 K",
    "Critical Pressure (PC)": "3.79600E+03 kPa",
    "Critical Volume (VC)": "2.55000E-01 m^3/kg-mol",
    "Critical Compressibility (ZC)": "2.73853E-01",
    "Accentric Factor (ACCF)": "1.99000E-01",
    "Vapor Pressure": {
        "Equation Name": "KDB Correlation Equation",
        "Equation": "ln(Pvp) = A*ln(T) + B/T + C + D*T^2 where Pvp in kPa, T in K",
        "Coefficient A": "-6.922293E+00",
        "Coefficient B": "-4.346626E+03",
        "Coefficient C": "5.870291E+01",
        "Coefficient D": "9.152712E-06",
        "Coefficient E": NaN,
        "Coefficient F": NaN,
        "Coefficient G": NaN,
        "T range, from": "134.86 K",
        "T range, to": "425.18 K"
    },
    "Heat Capacity (Ideal Gas)": {
        "Equation Name": "Polynomial Equation",
        "Equation": "Cp = A + B*T + C*T^2 + D*T^3 + E*T^4  where Cp in kJ/kg-mol , T in K",
        "Coefficient A": "2.425841E+01",
        "Coefficient B": "2.335080E-01",
        "Coefficient C": "1.279000E-04",
        "Coefficient D": "-2.436861E-07",
        "Coefficient E": "8.552366E-11",
        "Coefficient F": NaN,
        "Coefficient G": NaN,
        "T range, from": NaN,
        "T range, to": NaN
    },
    "Heat Capacity (Liquid)": NaN,
    "Viscosity (Gas, Low P)": NaN,
    "Viscosity (Liquid)": {
        "Equation Name": "Andrade Equation",
        "Equation": "ln (VISL) = A + B/ T  where T in K and VISL in cP.",
        "Coefficient A": "-3.821",
        "Coefficient B": "612.1",
        "Coefficient C": "0",
        "Coefficient D": "0",
        "Coefficient E": NaN,
        "Coefficient F": NaN,
        "Coefficient G": NaN,
        "T range, from": "183.15 K",
        "T range, to": "273.15 K"
    },
    "Themal Conductivity (Gas, Low P)": NaN,
    "Themal Conductivity (Liquid)": NaN,
    "Surface Tension": NaN,
    "Partial Molar Volume (VOLP)": "1.003900E-01 m^3/kg-mol",
    "Solubility Parameters (SOLP)": "1.376610E+04 (J/cm^3)^0.5",
    "SRK accentric factor (WSRK)": "2.008000E-01",
    "COSTALD Characteristic Volume (VSTAR)": "2.544000E-01 m^3/kg-mol",
    "Rackett parameter (ZRA)": "2.730000E-01",
    "Aniline Point (ANP)": "3.562500E+02 K",
    "H(formation,ideal gas)at 25 C": "-1.262000E+05 kJ/kg-mol",
    "G(formation,ideal gas) at 25 C": "-1.610000E+04 kJ/kg-mol",
    "Heat of Combustion, Gross form (HCB1)": "2.855371E+06 kJ/kg-mol",
    "Heat of Combustion, Net form (HCB2)": "2.635334E+06 kJ/kg-mol",
    "Van der Waals Volume (VDWV)": NaN,
    "Van der Waals Area (VDWA)": NaN,
    "UNIQUAC Ri Parameter (RI)": "3.151000E+00",
    "UNIQUAC Qi Parameter (QI)": "2.776000E+00",
    "Dipole Moment (DM)": "0.000000E+00 debye",
    "Radius of Gyration (GYRAD)": "2.889000E+00",
    "Liquid Density (DENL)": "9.961633E-03 g-mol/cm^3",
    "Temperature of DENL (TDENL)": "2.930000E+02 K",
    "Heat of Vaporizaiton (HVAP)": "2.239300E+04 kJ/kg-mol",
    "Temperature of HVAP (THVAP)": "2.730000E+02 K",
    "Surface Tension (SRF)": "1.246000E+01 dyn/cm",
    "Temperature of SRF (TSRF)": "2.932000E+02 K",
    "Dielectric Constant (DIEL)": NaN,
    "Temperature of DIEL (TDIEL)": NaN,
    "Refractive Index (RFI)": "1.329200E+00",
    "Temperature of RFI (TRFI)": "2.981500E+02 K",
    "Lower Flammability Limit(FLL)": "1.800000E+00 % in Air",
    "Upper Flammability Limit(FLU)": "8.400000E+00 % in Air",
    "Flash Point (Open Cup Method)": "1.998167E+02 K",
    "Flash Point (Closed Cup Method)": NaN,
    "Autoignition Temperature (AIGT)": "7.037056E+02 K",
    "NFPA Rating (Health)": "1",
    "NFPA Rating (Fire)": "4",
    "NFPA Rating (Safety)": NaN,
    "Class": "Paraffinic Hydrocarbons",
    "Subclass": "n-Alkanes",
    "SMILES": "CCCC"
}