{
    "ID": "40",
    "Name": "3-METHYLHEXANE",
    "Synonyms": "2-ETHYLPENTANE",
    "CAS No.": "589-34-4",
    "Formula": "C7H16",
    "Molecular Wt. (WT)": "1.00203E+02",
    "Normal Boiling Point Temp. (TB)": "3.64990E+02 K",
    "Freezing Point Temp. (TF)": "1.53700E+02 K",
    "Triple Point Temp. (TT)": NaN,
    "Triple Point Press. (PT)": NaN,
    "Critical Temperature. (TC)": "5.35200E+02 K",
    "Critical Pressure (PC)": "2.81000E+03 kPa",
    "Critical Volume (VC)": "4.04000E-01 m^3/kg-mol",
    "Critical Compressibility (ZC)": "2.55114E-01",
    "Accentric Factor (ACCF)": "3.23000E-01",
    "Vapor Pressure": {
        "Equation Name": "KDB Correlation Equation",
        "Equation": "ln(Pvp) = A*ln(T) + B/T + C + D*T^2 where Pvp in kPa, T in K",
        "Coefficient A": "-9.769754E+00",
        "Coefficient B": "-6.768639E+03",
        "Coefficient C": "7.980000E+01",
        "Coefficient D": "7.546923E-06",
        "Coefficient E": NaN,
        "Coefficient F": NaN,
        "Coefficient G": NaN,
        "T range, from": "153.75 K",
        "T range, to": "535.25 K"
    },
    "Heat Capacity (Ideal Gas)": {
        "Equation Name": "Polynomial Equation",
        "Equation": "Cp = A + B*T + C*T^2 + D*T^3 + E*T^4  where Cp in kJ/kg-mol , T in K",
        "Coefficient A": "-3.118752E+00",
        "Coefficient B": "6.260958E-01",
        "Coefficient C": "-1.882632E-04",
        "Coefficient D": "-1.095218E-07",
        "Coefficient E": "6.189637E-11",
        "Coefficient F": NaN,
        "Coefficient G": NaN,
        "T range, from": NaN,
        "T range, to": NaN
    },
    "Heat Capacity (Liquid)": NaN,
    "Viscosity (Gas, Low P)": NaN,
    "Viscosity (Liquid)": NaN,
    "Themal Conductivity (Gas, Low P)": NaN,
    "Themal Conductivity (Liquid)": NaN,
    "Surface Tension": NaN,
    "Partial Molar Volume (VOLP)": NaN,
    "Solubility Parameters (SOLP)": "1.490952E+04 (J/cm^3)^0.5",
    "SRK accentric factor (WSRK)": "3.243000E-01",
    "COSTALD Characteristic Volume (VSTAR)": "4.231000E-01 m^3/kg-mol",
    "Rackett parameter (ZRA)": "2.654000E-01",
    "Aniline Point (ANP)": "3.436500E+02 K",
    "H(formation,ideal gas)at 25 C": "-1.924000E+05 kJ/kg-mol",
    "G(formation,ideal gas) at 25 C": "4.600000E+03 kJ/kg-mol",
    "Heat of Combustion, Gross form (HCB1)": "4.813902E+06 kJ/kg-mol",
    "Heat of Combustion, Net form (HCB2)": "4.461776E+06 kJ/kg-mol",
    "Van der Waals Volume (VDWV)": NaN,
    "Van der Waals Area (VDWA)": NaN,
    "UNIQUAC Ri Parameter (RI)": NaN,
    "UNIQUAC Qi Parameter (QI)": NaN,
    "Dipole Moment (DM)": "0.000000E+00 debye",
    "Radius of Gyration (GYRAD)": NaN,
    "Liquid Density (DENL)": "6.856055E-03 g-mol/cm^3",
    "Temperature of DENL (TDENL)": "2.930000E+02 K",
    "Heat of Vaporizaiton (HVAP)": "3.079400E+04 kJ/kg-mol",
    "Temperature of HVAP (THVAP)": "3.650000E+02 K",
    "Surface Tension (SRF)": "1.931000E+01 dyn/cm",
    "Temperature of SRF (TSRF)": "2.982000E+02 K",
    "Dielectric Constant (DIEL)": NaN,
    "Temperature of DIEL (TDIEL)": NaN,
    "Refractive Index (RFI)": "1.386090E+00",
    "Temperature of RFI (TRFI)": "2.981500E+02 K",
    "Lower Flammability Limit(FLL)": NaN,
    "Upper Flammability Limit(FLU)": NaN,
    "Flash Point (Open Cup Method)": NaN,
    "Flash Point (Closed Cup Method)": NaN,
    "Autoignition Temperature (AIGT)": NaN,
    "NFPA Rating (Health)": NaN,
    "NFPA Rating (Fire)": NaN,
    "NFPA Rating (Safety)": NaN,
    "Class": "Paraffinic Hydrocarbons",
    "Subclass": "Branched Alkanes",
    "SMILES": "CCCC(C)CC"
}