{
    "ID": "400",
    "Name": "METHYLACETYLENE",
    "Synonyms": "PROPYNE, ALLYLENE, METHYLACETYLENE",
    "CAS No.": "74-99-7",
    "Formula": "C3H4",
    "Molecular Wt. (WT)": "4.00646E+01",
    "Normal Boiling Point Temp. (TB)": "2.49900E+02 K",
    "Freezing Point Temp. (TF)": "1.70400E+02 K",
    "Triple Point Temp. (TT)": NaN,
    "Triple Point Press. (PT)": NaN,
    "Critical Temperature. (TC)": "4.02400E+02 K",
    "Critical Pressure (PC)": "5.63000E+03 kPa",
    "Critical Volume (VC)": "1.63500E-01 m^3/kg-mol",
    "Critical Compressibility (ZC)": "2.75126E-01",
    "Accentric Factor (ACCF)": "2.15000E-01",
    "Vapor Pressure": {
        "Equation Name": "KDB Correlation Equation",
        "Equation": "ln(Pvp) = A*ln(T) + B/T + C + D*T^2 where Pvp in kPa, T in K",
        "Coefficient A": "-8.013853E+00",
        "Coefficient B": "-4.400937E+03",
        "Coefficient C": "6.574228E+01",
        "Coefficient D": "1.164204E-05",
        "Coefficient E": NaN,
        "Coefficient F": NaN,
        "Coefficient G": NaN,
        "T range, from": "170.45 K",
        "T range, to": "402.39 K"
    },
    "Heat Capacity (Ideal Gas)": {
        "Equation Name": "Polynomial Equation",
        "Equation": "Cp = A + B*T + C*T^2 + D*T^3 + E*T^4  where Cp in kJ/kg-mol , T in K",
        "Coefficient A": "2.661245E+01",
        "Coefficient B": "9.848478E-02",
        "Coefficient C": "9.262977E-05",
        "Coefficient D": "-1.641093E-07",
        "Coefficient E": "6.171064E-11",
        "Coefficient F": NaN,
        "Coefficient G": NaN,
        "T range, from": NaN,
        "T range, to": NaN
    },
    "Heat Capacity (Liquid)": NaN,
    "Viscosity (Gas, Low P)": NaN,
    "Viscosity (Liquid)": NaN,
    "Themal Conductivity (Gas, Low P)": NaN,
    "Themal Conductivity (Liquid)": NaN,
    "Surface Tension": NaN,
    "Partial Molar Volume (VOLP)": NaN,
    "Solubility Parameters (SOLP)": "1.638432E+04 (J/cm^3)^0.5",
    "SRK accentric factor (WSRK)": "2.184000E-01",
    "COSTALD Characteristic Volume (VSTAR)": "1.609000E-01 m^3/kg-mol",
    "Rackett parameter (ZRA)": "2.706000E-01",
    "Aniline Point (ANP)": NaN,
    "H(formation,ideal gas)at 25 C": "1.856000E+05 kJ/kg-mol",
    "G(formation,ideal gas) at 25 C": "1.946000E+05 kJ/kg-mol",
    "Heat of Combustion, Gross form (HCB1)": "1.924640E+06 kJ/kg-mol",
    "Heat of Combustion, Net form (HCB2)": "1.832592E+06 kJ/kg-mol",
    "Van der Waals Volume (VDWV)": NaN,
    "Van der Waals Area (VDWA)": NaN,
    "UNIQUAC Ri Parameter (RI)": NaN,
    "UNIQUAC Qi Parameter (QI)": NaN,
    "Dipole Moment (DM)": "7.000000E-01 debye",
    "Radius of Gyration (GYRAD)": NaN,
    "Liquid Density (DENL)": "1.762154E-02 g-mol/cm^3",
    "Temperature of DENL (TDENL)": "2.230000E+02 K",
    "Heat of Vaporizaiton (HVAP)": "2.213300E+04 kJ/kg-mol",
    "Temperature of HVAP (THVAP)": "2.498000E+02 K",
    "Surface Tension (SRF)": "2.488000E+01 dyn/cm",
    "Temperature of SRF (TSRF)": "2.032000E+02 K",
    "Dielectric Constant (DIEL)": NaN,
    "Temperature of DIEL (TDIEL)": NaN,
    "Refractive Index (RFI)": NaN,
    "Temperature of RFI (TRFI)": NaN,
    "Lower Flammability Limit(FLL)": NaN,
    "Upper Flammability Limit(FLU)": NaN,
    "Flash Point (Open Cup Method)": NaN,
    "Flash Point (Closed Cup Method)": NaN,
    "Autoignition Temperature (AIGT)": NaN,
    "NFPA Rating (Health)": 2.0,
    "NFPA Rating (Fire)": 4.0,
    "NFPA Rating (Safety)": 2.0,
    "Class": "Unsaturated Hydrocarbons",
    "Subclass": "Alkynes",
    "SMILES": "CC#C"
}