{
    "ID": "401",
    "Name": "VINYLACETYLENE",
    "Synonyms": "1-BUTEN-3-YEN, BUTENYNE, ETHYNYLETHENE",
    "CAS No.": "689-97-4",
    "Formula": "C4H4",
    "Molecular Wt. (WT)": "5.20756E+01",
    "Normal Boiling Point Temp. (TB)": "2.78100E+02 K",
    "Freezing Point Temp. (TF)": "2.27600E+02 K",
    "Triple Point Temp. (TT)": NaN,
    "Triple Point Press. (PT)": NaN,
    "Critical Temperature. (TC)": "4.55000E+02 K",
    "Critical Pressure (PC)": "4.96000E+03 kPa",
    "Critical Volume (VC)": "2.02000E-01 m^3/kg-mol",
    "Critical Compressibility (ZC)": "2.64841E-01",
    "Accentric Factor (ACCF)": "9.20000E-02",
    "Vapor Pressure": {
        "Equation Name": "KDB Correlation Equation",
        "Equation": "ln(Pvp) = A*ln(T) + B/T + C + D*T^2 where Pvp in kPa, T in K",
        "Coefficient A": "-8.713885E+00",
        "Coefficient B": "-5.123224E+03",
        "Coefficient C": "7.146718E+01",
        "Coefficient D": "7.765439E-06",
        "Coefficient E": NaN,
        "Coefficient F": NaN,
        "Coefficient G": NaN,
        "T range, from": "179.95 K",
        "T range, to": "454.00 K"
    },
    "Heat Capacity (Ideal Gas)": {
        "Equation Name": "Polynomial Equation",
        "Equation": "Cp = A + B*T + C*T^2 + D*T^3 + E*T^4  where Cp in kJ/kg-mol , T in K",
        "Coefficient A": "6.757000E+00",
        "Coefficient B": "2.841000E-01",
        "Coefficient C": "-2.265000E-04",
        "Coefficient D": "7.461E-08",
        "Coefficient E": "0",
        "Coefficient F": NaN,
        "Coefficient G": NaN,
        "T range, from": NaN,
        "T range, to": NaN
    },
    "Heat Capacity (Liquid)": NaN,
    "Viscosity (Gas, Low P)": NaN,
    "Viscosity (Liquid)": NaN,
    "Themal Conductivity (Gas, Low P)": NaN,
    "Themal Conductivity (Liquid)": NaN,
    "Surface Tension": NaN,
    "Partial Molar Volume (VOLP)": "7.340000E-02 m^3/kg-mol",
    "Solubility Parameters (SOLP)": "1.613681E+04 (J/cm^3)^0.5",
    "SRK accentric factor (WSRK)": "1.335000E-01",
    "COSTALD Characteristic Volume (VSTAR)": "1.961000E-01 m^3/kg-mol",
    "Rackett parameter (ZRA)": NaN,
    "Aniline Point (ANP)": NaN,
    "H(formation,ideal gas)at 25 C": "3.048000E+05 kJ/kg-mol",
    "G(formation,ideal gas) at 25 C": "3.062000E+05 kJ/kg-mol",
    "Heat of Combustion, Gross form (HCB1)": NaN,
    "Heat of Combustion, Net form (HCB2)": NaN,
    "Van der Waals Volume (VDWV)": NaN,
    "Van der Waals Area (VDWA)": NaN,
    "UNIQUAC Ri Parameter (RI)": 2.6374,
    "UNIQUAC Qi Parameter (QI)": 2.264,
    "Dipole Moment (DM)": NaN,
    "Radius of Gyration (GYRAD)": NaN,
    "Liquid Density (DENL)": "1.363402E-02 g-mol/cm^3",
    "Temperature of DENL (TDENL)": "2.730000E+02 K",
    "Heat of Vaporizaiton (HVAP)": "2.447600E+04 kJ/kg-mol",
    "Temperature of HVAP (THVAP)": "2.781000E+02 K",
    "Surface Tension (SRF)": "1.616000E+01 dyn/cm",
    "Temperature of SRF (TSRF)": "2.982000E+02 K",
    "Dielectric Constant (DIEL)": NaN,
    "Temperature of DIEL (TDIEL)": NaN,
    "Refractive Index (RFI)": NaN,
    "Temperature of RFI (TRFI)": NaN,
    "Lower Flammability Limit(FLL)": NaN,
    "Upper Flammability Limit(FLU)": NaN,
    "Flash Point (Open Cup Method)": NaN,
    "Flash Point (Closed Cup Method)": NaN,
    "Autoignition Temperature (AIGT)": NaN,
    "NFPA Rating (Health)": NaN,
    "NFPA Rating (Fire)": NaN,
    "NFPA Rating (Safety)": NaN,
    "Class": "Unsaturated Hydrocarbons",
    "Subclass": "Alkynes",
    "SMILES": "C=CC#C"
}