{
    "ID": "402",
    "Name": "ETHYLACETYLENE",
    "Synonyms": "1-BUTYNE, ETHYLETHYNE, ETHYLACETYLENE",
    "CAS No.": "107-00-6",
    "Formula": "C4H6",
    "Molecular Wt. (WT)": "5.40914E+01",
    "Normal Boiling Point Temp. (TB)": "2.81230E+02 K",
    "Freezing Point Temp. (TF)": "1.47430E+02 K",
    "Triple Point Temp. (TT)": NaN,
    "Triple Point Press. (PT)": NaN,
    "Critical Temperature. (TC)": "4.40000E+02 K",
    "Critical Pressure (PC)": "4.60000E+03 kPa",
    "Critical Volume (VC)": "2.08000E-01 m^3/kg-mol",
    "Critical Compressibility (ZC)": "2.61536E-01",
    "Accentric Factor (ACCF)": "1.18200E-01",
    "Vapor Pressure": {
        "Equation Name": "KDB Correlation Equation",
        "Equation": "ln(Pvp) = A*ln(T) + B/T + C + D*T^2 where Pvp in kPa, T in K",
        "Coefficient A": "-1.143260E+01",
        "Coefficient B": "-5.687308E+03",
        "Coefficient C": "8.854116E+01",
        "Coefficient D": "1.252200E-05",
        "Coefficient E": NaN,
        "Coefficient F": NaN,
        "Coefficient G": NaN,
        "T range, from": "147.43 K",
        "T range, to": "443.20 K"
    },
    "Heat Capacity (Ideal Gas)": {
        "Equation Name": "Polynomial Equation",
        "Equation": "Cp = A + B*T + C*T^2 + D*T^3 + E*T^4  where Cp in kJ/kg-mol , T in K",
        "Coefficient A": "2.501821E+01",
        "Coefficient B": "1.753462E-01",
        "Coefficient C": "9.992375E-05",
        "Coefficient D": "-2.192656E-07",
        "Coefficient E": "8.511727E-11",
        "Coefficient F": NaN,
        "Coefficient G": NaN,
        "T range, from": NaN,
        "T range, to": NaN
    },
    "Heat Capacity (Liquid)": NaN,
    "Viscosity (Gas, Low P)": NaN,
    "Viscosity (Liquid)": NaN,
    "Themal Conductivity (Gas, Low P)": NaN,
    "Themal Conductivity (Liquid)": NaN,
    "Surface Tension": NaN,
    "Partial Molar Volume (VOLP)": NaN,
    "Solubility Parameters (SOLP)": "1.624113E+04 (J/cm^3)^0.5",
    "SRK accentric factor (WSRK)": "9.860000E-02",
    "COSTALD Characteristic Volume (VSTAR)": "2.154000E-01 m^3/kg-mol",
    "Rackett parameter (ZRA)": "2.711000E-01",
    "Aniline Point (ANP)": NaN,
    "H(formation,ideal gas)at 25 C": "1.653000E+05 kJ/kg-mol",
    "G(formation,ideal gas) at 25 C": "2.022000E+05 kJ/kg-mol",
    "Heat of Combustion, Gross form (HCB1)": "2.572532E+06 kJ/kg-mol",
    "Heat of Combustion, Net form (HCB2)": "2.440527E+06 kJ/kg-mol",
    "Van der Waals Volume (VDWV)": NaN,
    "Van der Waals Area (VDWA)": NaN,
    "UNIQUAC Ri Parameter (RI)": NaN,
    "UNIQUAC Qi Parameter (QI)": NaN,
    "Dipole Moment (DM)": "8.000000E-01 debye",
    "Radius of Gyration (GYRAD)": NaN,
    "Liquid Density (DENL)": "1.201670E-02 g-mol/cm^3",
    "Temperature of DENL (TDENL)": "2.890000E+02 K",
    "Heat of Vaporizaiton (HVAP)": "2.497800E+04 kJ/kg-mol",
    "Temperature of HVAP (THVAP)": "2.812000E+02 K",
    "Surface Tension (SRF)": "2.050000E+01 dyn/cm",
    "Temperature of SRF (TSRF)": "2.732000E+02 K",
    "Dielectric Constant (DIEL)": NaN,
    "Temperature of DIEL (TDIEL)": NaN,
    "Refractive Index (RFI)": NaN,
    "Temperature of RFI (TRFI)": NaN,
    "Lower Flammability Limit(FLL)": NaN,
    "Upper Flammability Limit(FLU)": NaN,
    "Flash Point (Open Cup Method)": NaN,
    "Flash Point (Closed Cup Method)": NaN,
    "Autoignition Temperature (AIGT)": NaN,
    "NFPA Rating (Health)": NaN,
    "NFPA Rating (Fire)": NaN,
    "NFPA Rating (Safety)": NaN,
    "Class": "Unsaturated Hydrocarbons",
    "Subclass": "Alkynes",
    "SMILES": "CCC#C"
}