{
    "ID": "403",
    "Name": "DIMETHYLACETYLENE",
    "Synonyms": "2-BUTYNE, CROTONYLENE",
    "CAS No.": "503-17-3",
    "Formula": "C4H6",
    "Molecular Wt. (WT)": "5.40914E+01",
    "Normal Boiling Point Temp. (TB)": "3.00120E+02 K",
    "Freezing Point Temp. (TF)": "2.40790E+02 K",
    "Triple Point Temp. (TT)": NaN,
    "Triple Point Press. (PT)": NaN,
    "Critical Temperature. (TC)": "4.88700E+02 K",
    "Critical Pressure (PC)": "5.08000E+03 kPa",
    "Critical Volume (VC)": "2.21000E-01 m^3/kg-mol",
    "Critical Compressibility (ZC)": "2.76298E-01",
    "Accentric Factor (ACCF)": "1.30500E-01",
    "Vapor Pressure": {
        "Equation Name": "KDB Correlation Equation",
        "Equation": "ln(Pvp) = A*ln(T) + B/T + C + D*T^2 where Pvp in kPa, T in K",
        "Coefficient A": "-4.443263E+00",
        "Coefficient B": "-4.558954E+03",
        "Coefficient C": "4.501653E+01",
        "Coefficient D": "1.529392E-06",
        "Coefficient E": NaN,
        "Coefficient F": NaN,
        "Coefficient G": NaN,
        "T range, from": "240.00 K",
        "T range, to": "488.15 K"
    },
    "Heat Capacity (Ideal Gas)": {
        "Equation Name": "Polynomial Equation",
        "Equation": "Cp = A + B*T + C*T^2 + D*T^3 + E*T^4  where Cp in kJ/kg-mol , T in K",
        "Coefficient A": "1.207972E+01",
        "Coefficient B": "2.821764E-01",
        "Coefficient C": "-1.768268E-04",
        "Coefficient D": "5.561743E-08",
        "Coefficient E": "-6.347537E-12",
        "Coefficient F": NaN,
        "Coefficient G": NaN,
        "T range, from": NaN,
        "T range, to": NaN
    },
    "Heat Capacity (Liquid)": NaN,
    "Viscosity (Gas, Low P)": NaN,
    "Viscosity (Liquid)": NaN,
    "Themal Conductivity (Gas, Low P)": NaN,
    "Themal Conductivity (Liquid)": {
        "Equation Name": "Polynomial Equation",
        "Equation": "THL = A + B*T + C*T^2 + D*T^3  where T in K and THL in W/m.K",
        "Coefficient A": ".2325",
        "Coefficient B": "-.0005204",
        "Coefficient C": "2.609E-07",
        "Coefficient D": "0",
        "Coefficient E": NaN,
        "Coefficient F": NaN,
        "Coefficient G": NaN,
        "T range, from": "133 K",
        "T range, to": "373 K"
    },
    "Surface Tension": NaN,
    "Partial Molar Volume (VOLP)": NaN,
    "Solubility Parameters (SOLP)": "1.700819E+04 (J/cm^3)^0.5",
    "SRK accentric factor (WSRK)": NaN,
    "COSTALD Characteristic Volume (VSTAR)": NaN,
    "Rackett parameter (ZRA)": NaN,
    "Aniline Point (ANP)": NaN,
    "H(formation,ideal gas)at 25 C": "1.464000E+05 kJ/kg-mol",
    "G(formation,ideal gas) at 25 C": "1.856000E+05 kJ/kg-mol",
    "Heat of Combustion, Gross form (HCB1)": "2.550943E+06 kJ/kg-mol",
    "Heat of Combustion, Net form (HCB2)": "2.418896E+06 kJ/kg-mol",
    "Van der Waals Volume (VDWV)": NaN,
    "Van der Waals Area (VDWA)": NaN,
    "UNIQUAC Ri Parameter (RI)": NaN,
    "UNIQUAC Qi Parameter (QI)": NaN,
    "Dipole Moment (DM)": "8.000000E-01 debye",
    "Radius of Gyration (GYRAD)": NaN,
    "Liquid Density (DENL)": "1.277467E-02 g-mol/cm^3",
    "Temperature of DENL (TDENL)": "2.930000E+02 K",
    "Heat of Vaporizaiton (HVAP)": "2.665200E+04 kJ/kg-mol",
    "Temperature of HVAP (THVAP)": "3.001000E+02 K",
    "Surface Tension (SRF)": "2.001000E+01 dyn/cm",
    "Temperature of SRF (TSRF)": "2.982000E+02 K",
    "Dielectric Constant (DIEL)": NaN,
    "Temperature of DIEL (TDIEL)": NaN,
    "Refractive Index (RFI)": "1.389300E+00",
    "Temperature of RFI (TRFI)": "2.981500E+02 K",
    "Lower Flammability Limit(FLL)": NaN,
    "Upper Flammability Limit(FLU)": NaN,
    "Flash Point (Open Cup Method)": NaN,
    "Flash Point (Closed Cup Method)": NaN,
    "Autoignition Temperature (AIGT)": NaN,
    "NFPA Rating (Health)": NaN,
    "NFPA Rating (Fire)": NaN,
    "NFPA Rating (Safety)": NaN,
    "Class": "Unsaturated Hydrocarbons",
    "Subclass": "Alkynes",
    "SMILES": "CC#CC"
}