{
    "ID": "41",
    "Name": "3-ETHYLPENTANE",
    "Synonyms": NaN,
    "CAS No.": "617-78-7",
    "Formula": "C7H16",
    "Molecular Wt. (WT)": "1.00203E+02",
    "Normal Boiling Point Temp. (TB)": "3.66600E+02 K",
    "Freezing Point Temp. (TF)": "1.54500E+02 K",
    "Triple Point Temp. (TT)": NaN,
    "Triple Point Press. (PT)": NaN,
    "Critical Temperature. (TC)": "5.40600E+02 K",
    "Critical Pressure (PC)": "2.89000E+03 kPa",
    "Critical Volume (VC)": "4.16000E-01 m^3/kg-mol",
    "Critical Compressibility (ZC)": "2.67472E-01",
    "Accentric Factor (ACCF)": "3.10000E-01",
    "Vapor Pressure": {
        "Equation Name": "KDB Correlation Equation",
        "Equation": "ln(Pvp) = A*ln(T) + B/T + C + D*T^2 where Pvp in kPa, T in K",
        "Coefficient A": "-7.081448E+00",
        "Coefficient B": "-6.125468E+03",
        "Coefficient C": "6.253456E+01",
        "Coefficient D": "4.462117E-06",
        "Coefficient E": NaN,
        "Coefficient F": NaN,
        "Coefficient G": NaN,
        "T range, from": "154.55 K",
        "T range, to": "540.64 K"
    },
    "Heat Capacity (Ideal Gas)": {
        "Equation Name": "Polynomial Equation",
        "Equation": "Cp = A + B*T + C*T^2 + D*T^3 + E*T^4  where Cp in kJ/kg-mol , T in K",
        "Coefficient A": "9.351221E+00",
        "Coefficient B": "5.207002E-01",
        "Coefficient C": "1.894866E-04",
        "Coefficient D": "-5.724763E-07",
        "Coefficient E": "2.289226E-10",
        "Coefficient F": NaN,
        "Coefficient G": NaN,
        "T range, from": NaN,
        "T range, to": NaN
    },
    "Heat Capacity (Liquid)": NaN,
    "Viscosity (Gas, Low P)": NaN,
    "Viscosity (Liquid)": NaN,
    "Themal Conductivity (Gas, Low P)": NaN,
    "Themal Conductivity (Liquid)": NaN,
    "Surface Tension": NaN,
    "Partial Molar Volume (VOLP)": NaN,
    "Solubility Parameters (SOLP)": "1.505271E+04 (J/cm^3)^0.5",
    "SRK accentric factor (WSRK)": "3.118000E-01",
    "COSTALD Characteristic Volume (VSTAR)": "4.163000E-01 m^3/kg-mol",
    "Rackett parameter (ZRA)": "2.658000E-01",
    "Aniline Point (ANP)": "3.388500E+02 K",
    "H(formation,ideal gas)at 25 C": "-1.898000E+05 kJ/kg-mol",
    "G(formation,ideal gas) at 25 C": "1.100000E+04 kJ/kg-mol",
    "Heat of Combustion, Gross form (HCB1)": "4.816328E+06 kJ/kg-mol",
    "Heat of Combustion, Net form (HCB2)": "4.464203E+06 kJ/kg-mol",
    "Van der Waals Volume (VDWV)": NaN,
    "Van der Waals Area (VDWA)": NaN,
    "UNIQUAC Ri Parameter (RI)": NaN,
    "UNIQUAC Qi Parameter (QI)": NaN,
    "Dipole Moment (DM)": "0.000000E+00 debye",
    "Radius of Gyration (GYRAD)": NaN,
    "Liquid Density (DENL)": "6.965832E-03 g-mol/cm^3",
    "Temperature of DENL (TDENL)": "2.930000E+02 K",
    "Heat of Vaporizaiton (HVAP)": "3.095700E+04 kJ/kg-mol",
    "Temperature of HVAP (THVAP)": "3.666000E+02 K",
    "Surface Tension (SRF)": "1.994000E+01 dyn/cm",
    "Temperature of SRF (TSRF)": "2.982000E+02 K",
    "Dielectric Constant (DIEL)": NaN,
    "Temperature of DIEL (TDIEL)": NaN,
    "Refractive Index (RFI)": "1.390840E+00",
    "Temperature of RFI (TRFI)": "2.981500E+02 K",
    "Lower Flammability Limit(FLL)": NaN,
    "Upper Flammability Limit(FLU)": NaN,
    "Flash Point (Open Cup Method)": NaN,
    "Flash Point (Closed Cup Method)": NaN,
    "Autoignition Temperature (AIGT)": NaN,
    "NFPA Rating (Health)": NaN,
    "NFPA Rating (Fire)": NaN,
    "NFPA Rating (Safety)": NaN,
    "Class": "Paraffinic Hydrocarbons",
    "Subclass": "Branched Alkanes",
    "SMILES": "CCC(CC)CC"
}