{
    "ID": "414",
    "Name": "1-HEPTYNE",
    "Synonyms": "AMYLACETYLENE",
    "CAS No.": "628-71-7",
    "Formula": "C7H12",
    "Molecular Wt. (WT)": "9.61718E+01",
    "Normal Boiling Point Temp. (TB)": "3.72900E+02 K",
    "Freezing Point Temp. (TF)": "1.92000E+02 K",
    "Triple Point Temp. (TT)": NaN,
    "Triple Point Press. (PT)": NaN,
    "Critical Temperature. (TC)": "5.59700E+02 K",
    "Critical Pressure (PC)": "3.30000E+03 kPa",
    "Critical Volume (VC)": "3.89500E-01 m^3/kg-mol",
    "Critical Compressibility (ZC)": "2.76204E-01",
    "Accentric Factor (ACCF)": "2.93000E-01",
    "Vapor Pressure": {
        "Equation Name": "KDB Correlation Equation",
        "Equation": "ln(Pvp) = A*ln(T) + B/T + C + D*T^2 where Pvp in kPa, T in K",
        "Coefficient A": "-1.029988E+01",
        "Coefficient B": "-6.661172E+03",
        "Coefficient C": "8.208645E+01",
        "Coefficient D": "9.868223E-06",
        "Coefficient E": NaN,
        "Coefficient F": NaN,
        "Coefficient G": NaN,
        "T range, from": "287.15 K",
        "T range, to": "559.69 K"
    },
    "Heat Capacity (Ideal Gas)": NaN,
    "Heat Capacity (Liquid)": NaN,
    "Viscosity (Gas, Low P)": NaN,
    "Viscosity (Liquid)": NaN,
    "Themal Conductivity (Gas, Low P)": NaN,
    "Themal Conductivity (Liquid)": NaN,
    "Surface Tension": NaN,
    "Partial Molar Volume (VOLP)": NaN,
    "Solubility Parameters (SOLP)": NaN,
    "SRK accentric factor (WSRK)": NaN,
    "COSTALD Characteristic Volume (VSTAR)": NaN,
    "Rackett parameter (ZRA)": NaN,
    "Aniline Point (ANP)": NaN,
    "H(formation,ideal gas)at 25 C": NaN,
    "G(formation,ideal gas) at 25 C": NaN,
    "Heat of Combustion, Gross form (HCB1)": "4.542988E+06 kJ/kg-mol",
    "Heat of Combustion, Net form (HCB2)": "4.279395E+06 kJ/kg-mol",
    "Van der Waals Volume (VDWV)": NaN,
    "Van der Waals Area (VDWA)": NaN,
    "UNIQUAC Ri Parameter (RI)": NaN,
    "UNIQUAC Qi Parameter (QI)": NaN,
    "Dipole Moment (DM)": NaN,
    "Radius of Gyration (GYRAD)": NaN,
    "Liquid Density (DENL)": NaN,
    "Temperature of DENL (TDENL)": NaN,
    "Heat of Vaporizaiton (HVAP)": NaN,
    "Temperature of HVAP (THVAP)": NaN,
    "Surface Tension (SRF)": NaN,
    "Temperature of SRF (TSRF)": NaN,
    "Dielectric Constant (DIEL)": NaN,
    "Temperature of DIEL (TDIEL)": NaN,
    "Refractive Index (RFI)": "1.406100E+00",
    "Temperature of RFI (TRFI)": "2.981500E+02 K",
    "Lower Flammability Limit(FLL)": NaN,
    "Upper Flammability Limit(FLU)": NaN,
    "Flash Point (Open Cup Method)": NaN,
    "Flash Point (Closed Cup Method)": NaN,
    "Autoignition Temperature (AIGT)": NaN,
    "NFPA Rating (Health)": NaN,
    "NFPA Rating (Fire)": NaN,
    "NFPA Rating (Safety)": NaN,
    "Class": "Unsaturated Hydrocarbons",
    "Subclass": "Alkynes",
    "SMILES": "CCCCCC#C"
}