{
    "ID": "42",
    "Name": "2,2-DIMETHYLPENTANE",
    "Synonyms": NaN,
    "CAS No.": "590-35-2",
    "Formula": "C7H16",
    "Molecular Wt. (WT)": "1.00203E+02",
    "Normal Boiling Point Temp. (TB)": "3.52300E+02 K",
    "Freezing Point Temp. (TF)": "1.49300E+02 K",
    "Triple Point Temp. (TT)": NaN,
    "Triple Point Press. (PT)": NaN,
    "Critical Temperature. (TC)": "5.20500E+02 K",
    "Critical Pressure (PC)": "2.77000E+03 kPa",
    "Critical Volume (VC)": "4.16000E-01 m^3/kg-mol",
    "Critical Compressibility (ZC)": "2.66266E-01",
    "Accentric Factor (ACCF)": "2.87000E-01",
    "Vapor Pressure": {
        "Equation Name": "KDB Correlation Equation",
        "Equation": "ln(Pvp) = A*ln(T) + B/T + C + D*T^2 where Pvp in kPa, T in K",
        "Coefficient A": "-7.763656E+00",
        "Coefficient B": "-5.955936E+03",
        "Coefficient C": "6.632341E+01",
        "Coefficient D": "5.849931E-06",
        "Coefficient E": NaN,
        "Coefficient F": NaN,
        "Coefficient G": NaN,
        "T range, from": "149.34 K",
        "T range, to": "520.50 K"
    },
    "Heat Capacity (Ideal Gas)": {
        "Equation Name": "Polynomial Equation",
        "Equation": "Cp = A + B*T + C*T^2 + D*T^3 + E*T^4  where Cp in kJ/kg-mol , T in K",
        "Coefficient A": "9.351221E+00",
        "Coefficient B": "5.207002E-01",
        "Coefficient C": "1.894866E-04",
        "Coefficient D": "-5.724763E-07",
        "Coefficient E": "2.289226E-10",
        "Coefficient F": NaN,
        "Coefficient G": NaN,
        "T range, from": NaN,
        "T range, to": NaN
    },
    "Heat Capacity (Liquid)": NaN,
    "Viscosity (Gas, Low P)": NaN,
    "Viscosity (Liquid)": NaN,
    "Themal Conductivity (Gas, Low P)": NaN,
    "Themal Conductivity (Liquid)": NaN,
    "Surface Tension": NaN,
    "Partial Molar Volume (VOLP)": NaN,
    "Solubility Parameters (SOLP)": "1.415269E+04 (J/cm^3)^0.5",
    "SRK accentric factor (WSRK)": "2.882000E-01",
    "COSTALD Characteristic Volume (VSTAR)": "4.225000E-01 m^3/kg-mol",
    "Rackett parameter (ZRA)": "2.684000E-01",
    "Aniline Point (ANP)": "3.507500E+02 K",
    "H(formation,ideal gas)at 25 C": "-2.063000E+05 kJ/kg-mol",
    "G(formation,ideal gas) at 25 C": "8.399999E+02 kJ/kg-mol",
    "Heat of Combustion, Gross form (HCB1)": "4.802605E+06 kJ/kg-mol",
    "Heat of Combustion, Net form (HCB2)": "4.450479E+06 kJ/kg-mol",
    "Van der Waals Volume (VDWV)": NaN,
    "Van der Waals Area (VDWA)": NaN,
    "UNIQUAC Ri Parameter (RI)": NaN,
    "UNIQUAC Qi Parameter (QI)": NaN,
    "Dipole Moment (DM)": "0.000000E+00 debye",
    "Radius of Gyration (GYRAD)": NaN,
    "Liquid Density (DENL)": "6.726319E-03 g-mol/cm^3",
    "Temperature of DENL (TDENL)": "2.930000E+02 K",
    "Heat of Vaporizaiton (HVAP)": "2.916200E+04 kJ/kg-mol",
    "Temperature of HVAP (THVAP)": "3.524000E+02 K",
    "Surface Tension (SRF)": "1.755000E+01 dyn/cm",
    "Temperature of SRF (TSRF)": "2.982000E+02 K",
    "Dielectric Constant (DIEL)": NaN,
    "Temperature of DIEL (TDIEL)": NaN,
    "Refractive Index (RFI)": "1.379550E+00",
    "Temperature of RFI (TRFI)": "2.981500E+02 K",
    "Lower Flammability Limit(FLL)": NaN,
    "Upper Flammability Limit(FLU)": NaN,
    "Flash Point (Open Cup Method)": NaN,
    "Flash Point (Closed Cup Method)": NaN,
    "Autoignition Temperature (AIGT)": NaN,
    "NFPA Rating (Health)": NaN,
    "NFPA Rating (Fire)": NaN,
    "NFPA Rating (Safety)": NaN,
    "Class": "Paraffinic Hydrocarbons",
    "Subclass": "Branched Alkanes",
    "SMILES": "CCCC(C)(C)C"
}