{
    "ID": "43",
    "Name": "2,3-DIMETHYLPENTANE",
    "Synonyms": "3,4-DIMETHYLPENTANE",
    "CAS No.": "565-59-3",
    "Formula": "C7H16",
    "Molecular Wt. (WT)": "1.00203E+02",
    "Normal Boiling Point Temp. (TB)": "3.62930E+02 K",
    "Freezing Point Temp. (TF)": NaN,
    "Triple Point Temp. (TT)": NaN,
    "Triple Point Press. (PT)": NaN,
    "Critical Temperature. (TC)": "5.37300E+02 K",
    "Critical Pressure (PC)": "2.91000E+03 kPa",
    "Critical Volume (VC)": "3.93000E-01 m^3/kg-mol",
    "Critical Compressibility (ZC)": "2.55995E-01",
    "Accentric Factor (ACCF)": "2.96000E-01",
    "Vapor Pressure": {
        "Equation Name": "KDB Correlation Equation",
        "Equation": "ln(Pvp) = A*ln(T) + B/T + C + D*T^2 where Pvp in kPa, T in K",
        "Coefficient A": "-8.407245E+00",
        "Coefficient B": "-6.340227E+03",
        "Coefficient C": "7.083287E+01",
        "Coefficient D": "6.176603E-06",
        "Coefficient E": NaN,
        "Coefficient F": NaN,
        "Coefficient G": NaN,
        "T range, from": "160.00 K",
        "T range, to": "537.35 K"
    },
    "Heat Capacity (Ideal Gas)": {
        "Equation Name": "Polynomial Equation",
        "Equation": "Cp = A + B*T + C*T^2 + D*T^3 + E*T^4  where Cp in kJ/kg-mol , T in K",
        "Coefficient A": "9.351221E+00",
        "Coefficient B": "5.207002E-01",
        "Coefficient C": "1.894866E-04",
        "Coefficient D": "-5.724763E-07",
        "Coefficient E": "2.289226E-10",
        "Coefficient F": NaN,
        "Coefficient G": NaN,
        "T range, from": NaN,
        "T range, to": NaN
    },
    "Heat Capacity (Liquid)": NaN,
    "Viscosity (Gas, Low P)": NaN,
    "Viscosity (Liquid)": NaN,
    "Themal Conductivity (Gas, Low P)": NaN,
    "Themal Conductivity (Liquid)": NaN,
    "Surface Tension": NaN,
    "Partial Molar Volume (VOLP)": NaN,
    "Solubility Parameters (SOLP)": "1.480725E+04 (J/cm^3)^0.5",
    "SRK accentric factor (WSRK)": "2.973000E-01",
    "COSTALD Characteristic Volume (VSTAR)": "4.127000E-01 m^3/kg-mol",
    "Rackett parameter (ZRA)": "2.703000E-01",
    "Aniline Point (ANP)": "3.407500E+02 K",
    "H(formation,ideal gas)at 25 C": "-1.994000E+05 kJ/kg-mol",
    "G(formation,ideal gas) at 25 C": "6.700000E+02 kJ/kg-mol",
    "Heat of Combustion, Gross form (HCB1)": "4.807793E+06 kJ/kg-mol",
    "Heat of Combustion, Net form (HCB2)": "4.455668E+06 kJ/kg-mol",
    "Van der Waals Volume (VDWV)": NaN,
    "Van der Waals Area (VDWA)": NaN,
    "UNIQUAC Ri Parameter (RI)": NaN,
    "UNIQUAC Qi Parameter (QI)": NaN,
    "Dipole Moment (DM)": "0.000000E+00 debye",
    "Radius of Gyration (GYRAD)": NaN,
    "Liquid Density (DENL)": "6.935892E-03 g-mol/cm^3",
    "Temperature of DENL (TDENL)": "2.930000E+02 K",
    "Heat of Vaporizaiton (HVAP)": "3.038800E+04 kJ/kg-mol",
    "Temperature of HVAP (THVAP)": "3.631000E+02 K",
    "Surface Tension (SRF)": "1.947000E+01 dyn/cm",
    "Temperature of SRF (TSRF)": "2.982000E+02 K",
    "Dielectric Constant (DIEL)": NaN,
    "Temperature of DIEL (TDIEL)": NaN,
    "Refractive Index (RFI)": "1.389450E+00",
    "Temperature of RFI (TRFI)": "2.981500E+02 K",
    "Lower Flammability Limit(FLL)": NaN,
    "Upper Flammability Limit(FLU)": NaN,
    "Flash Point (Open Cup Method)": NaN,
    "Flash Point (Closed Cup Method)": NaN,
    "Autoignition Temperature (AIGT)": NaN,
    "NFPA Rating (Health)": NaN,
    "NFPA Rating (Fire)": 3.0,
    "NFPA Rating (Safety)": NaN,
    "Class": "Paraffinic Hydrocarbons",
    "Subclass": "Branched Alkanes",
    "SMILES": "CCC(C)C(C)C"
}