{
    "ID": "44",
    "Name": "2,4-DIMETHYLPENTANE",
    "Synonyms": NaN,
    "CAS No.": "108-08-7",
    "Formula": "C7H16",
    "Molecular Wt. (WT)": "1.00203E+02",
    "Normal Boiling Point Temp. (TB)": "3.53640E+02 K",
    "Freezing Point Temp. (TF)": "1.53200E+02 K",
    "Triple Point Temp. (TT)": NaN,
    "Triple Point Press. (PT)": NaN,
    "Critical Temperature. (TC)": "5.19800E+02 K",
    "Critical Pressure (PC)": "2.74000E+03 kPa",
    "Critical Volume (VC)": "4.18000E-01 m^3/kg-mol",
    "Critical Compressibility (ZC)": "2.65005E-01",
    "Accentric Factor (ACCF)": "3.02000E-01",
    "Vapor Pressure": {
        "Equation Name": "KDB Correlation Equation",
        "Equation": "ln(Pvp) = A*ln(T) + B/T + C + D*T^2 where Pvp in kPa, T in K",
        "Coefficient A": "-9.980372E+00",
        "Coefficient B": "-6.551710E+03",
        "Coefficient C": "8.067349E+01",
        "Coefficient D": "8.339168E-06",
        "Coefficient E": NaN,
        "Coefficient F": NaN,
        "Coefficient G": NaN,
        "T range, from": "153.91 K",
        "T range, to": "519.79 K"
    },
    "Heat Capacity (Ideal Gas)": {
        "Equation Name": "Polynomial Equation",
        "Equation": "Cp = A + B*T + C*T^2 + D*T^3 + E*T^4  where Cp in kJ/kg-mol , T in K",
        "Coefficient A": "-2.666923E+01",
        "Coefficient B": "8.216863E-01",
        "Coefficient C": "-6.030067E-04",
        "Coefficient D": "2.438314E-07",
        "Coefficient E": "-4.164696E-11",
        "Coefficient F": NaN,
        "Coefficient G": NaN,
        "T range, from": NaN,
        "T range, to": NaN
    },
    "Heat Capacity (Liquid)": NaN,
    "Viscosity (Gas, Low P)": NaN,
    "Viscosity (Liquid)": NaN,
    "Themal Conductivity (Gas, Low P)": NaN,
    "Themal Conductivity (Liquid)": NaN,
    "Surface Tension": NaN,
    "Partial Molar Volume (VOLP)": "1.499400E-01 m^3/kg-mol",
    "Solubility Parameters (SOLP)": "1.423451E+04 (J/cm^3)^0.5",
    "SRK accentric factor (WSRK)": "3.040000E-01",
    "COSTALD Characteristic Volume (VSTAR)": "4.251000E-01 m^3/kg-mol",
    "Rackett parameter (ZRA)": "2.671000E-01",
    "Aniline Point (ANP)": "3.519500E+02 K",
    "H(formation,ideal gas)at 25 C": "-2.021000E+05 kJ/kg-mol",
    "G(formation,ideal gas) at 25 C": "3.100000E+03 kJ/kg-mol",
    "Heat of Combustion, Gross form (HCB1)": "4.806286E+06 kJ/kg-mol",
    "Heat of Combustion, Net form (HCB2)": "4.454161E+06 kJ/kg-mol",
    "Van der Waals Volume (VDWV)": NaN,
    "Van der Waals Area (VDWA)": NaN,
    "UNIQUAC Ri Parameter (RI)": "5.172600E+00",
    "UNIQUAC Qi Parameter (QI)": "4.388000E+00",
    "Dipole Moment (DM)": "0.000000E+00 debye",
    "Radius of Gyration (GYRAD)": NaN,
    "Liquid Density (DENL)": "6.716339E-03 g-mol/cm^3",
    "Temperature of DENL (TDENL)": "2.930000E+02 K",
    "Heat of Vaporizaiton (HVAP)": "2.949700E+04 kJ/kg-mol",
    "Temperature of HVAP (THVAP)": "3.538000E+02 K",
    "Surface Tension (SRF)": "1.766000E+01 dyn/cm",
    "Temperature of SRF (TSRF)": "2.982000E+02 K",
    "Dielectric Constant (DIEL)": NaN,
    "Temperature of DIEL (TDIEL)": NaN,
    "Refractive Index (RFI)": "1.378820E+00",
    "Temperature of RFI (TRFI)": "2.981500E+02 K",
    "Lower Flammability Limit(FLL)": NaN,
    "Upper Flammability Limit(FLU)": NaN,
    "Flash Point (Open Cup Method)": NaN,
    "Flash Point (Closed Cup Method)": NaN,
    "Autoignition Temperature (AIGT)": NaN,
    "NFPA Rating (Health)": NaN,
    "NFPA Rating (Fire)": 3.0,
    "NFPA Rating (Safety)": NaN,
    "Class": "Paraffinic Hydrocarbons",
    "Subclass": "Branched Alkanes",
    "SMILES": "CC(C)CC(C)C"
}