{
    "ID": "446",
    "Name": "CYCLOPROPANE",
    "Synonyms": "TRIMETHYLENE",
    "CAS No.": "75-19-4",
    "Formula": "C3H6",
    "Molecular Wt. (WT)": "4.20804E+01",
    "Normal Boiling Point Temp. (TB)": "2.40340E+02 K",
    "Freezing Point Temp. (TF)": "1.45700E+02 K",
    "Triple Point Temp. (TT)": NaN,
    "Triple Point Press. (PT)": NaN,
    "Critical Temperature. (TC)": "3.98000E+02 K",
    "Critical Pressure (PC)": "5.54000E+03 kPa",
    "Critical Volume (VC)": "1.62000E-01 m^3/kg-mol",
    "Critical Compressibility (ZC)": "2.71210E-01",
    "Accentric Factor (ACCF)": "1.30000E-01",
    "Vapor Pressure": {
        "Equation Name": "KDB Correlation Equation",
        "Equation": "ln(Pvp) = A*ln(T) + B/T + C + D*T^2 where Pvp in kPa, T in K",
        "Coefficient A": "-7.893432E+00",
        "Coefficient B": "-3.989697E+03",
        "Coefficient C": "6.369496E+01",
        "Coefficient D": "1.382013E-05",
        "Coefficient E": NaN,
        "Coefficient F": NaN,
        "Coefficient G": NaN,
        "T range, from": "145.59 K",
        "T range, to": "397.91 K"
    },
    "Heat Capacity (Ideal Gas)": {
        "Equation Name": "Polynomial Equation",
        "Equation": "Cp = A + B*T + C*T^2 + D*T^3 + E*T^4  where Cp in kJ/kg-mol , T in K",
        "Coefficient A": "-3.524000E+01",
        "Coefficient B": "3.813000E-01",
        "Coefficient C": "-2.881000E-04",
        "Coefficient D": "9.035E-08",
        "Coefficient E": "0",
        "Coefficient F": NaN,
        "Coefficient G": NaN,
        "T range, from": NaN,
        "T range, to": NaN
    },
    "Heat Capacity (Liquid)": {
        "Equation Name": "Polynomial Equation",
        "Equation": "Cp = A + B*T + C*T^2 + D*T^3  where T in K and Cp in kJ/kg-mol.K",
        "Coefficient A": "-4.609365",
        "Coefficient B": "1.217133",
        "Coefficient C": "-6.121759E-03",
        "Coefficient D": "1.054626E-05",
        "Coefficient E": NaN,
        "Coefficient F": NaN,
        "Coefficient G": NaN,
        "T range, from": "145.73 K",
        "T range, to": "373.15 K"
    },
    "Viscosity (Gas, Low P)": {
        "Equation Name": "Polynomial Equation",
        "Equation": "VISG = A + B*T + C*T^2 where T in K and VISG in cP",
        "Coefficient A": "-.0007787",
        "Coefficient B": "3.478E-05",
        "Coefficient C": "-8.13E-09",
        "Coefficient D": "0",
        "Coefficient E": NaN,
        "Coefficient F": NaN,
        "Coefficient G": NaN,
        "T range, from": "273.15 K",
        "T range, to": "1273.15 K"
    },
    "Viscosity (Liquid)": {
        "Equation Name": "Quasipolynomial Equation",
        "Equation": "ln (VISL) = A + B/T + C*T + D*T^2  where T in K and VISL in cP.",
        "Coefficient A": "-3.074",
        "Coefficient B": "267.6",
        "Coefficient C": ".000255",
        "Coefficient D": "-8.83E-08",
        "Coefficient E": NaN,
        "Coefficient F": NaN,
        "Coefficient G": NaN,
        "T range, from": "146.15 K",
        "T range, to": "397.15 K"
    },
    "Themal Conductivity (Gas, Low P)": {
        "Equation Name": "Polynomial Equation",
        "Equation": "THG = A + B*T + C*T^2 + D*T^3  where T in K and THG in W/m.K",
        "Coefficient A": "-.008568",
        "Coefficient B": "4.079E-05",
        "Coefficient C": "1.579E-07",
        "Coefficient D": "-6.817E-11",
        "Coefficient E": NaN,
        "Coefficient F": NaN,
        "Coefficient G": NaN,
        "T range, from": "273 K",
        "T range, to": "1070 K"
    },
    "Themal Conductivity (Liquid)": {
        "Equation Name": "Polynomial Equation",
        "Equation": "THL = A + B*T + C*T^2 + D*T^3  where T in K and THL in W/m.K",
        "Coefficient A": ".1661",
        "Coefficient B": "-.0001763",
        "Coefficient C": "-2.814E-07",
        "Coefficient D": "0",
        "Coefficient E": NaN,
        "Coefficient F": NaN,
        "Coefficient G": NaN,
        "T range, from": "146 K",
        "T range, to": "390 K"
    },
    "Surface Tension": NaN,
    "Partial Molar Volume (VOLP)": NaN,
    "Solubility Parameters (SOLP)": NaN,
    "SRK accentric factor (WSRK)": "1.305000E-01",
    "COSTALD Characteristic Volume (VSTAR)": "1.610000E-01 m^3/kg-mol",
    "Rackett parameter (ZRA)": "2.716000E-01",
    "Aniline Point (ANP)": NaN,
    "H(formation,ideal gas)at 25 C": "5.334000E+04 kJ/kg-mol",
    "G(formation,ideal gas) at 25 C": "1.045000E+05 kJ/kg-mol",
    "Heat of Combustion, Gross form (HCB1)": NaN,
    "Heat of Combustion, Net form (HCB2)": NaN,
    "Van der Waals Volume (VDWV)": NaN,
    "Van der Waals Area (VDWA)": NaN,
    "UNIQUAC Ri Parameter (RI)": NaN,
    "UNIQUAC Qi Parameter (QI)": NaN,
    "Dipole Moment (DM)": "0.000000E+00 debye",
    "Radius of Gyration (GYRAD)": NaN,
    "Liquid Density (DENL)": "1.499510E-02 g-mol/cm^3",
    "Temperature of DENL (TDENL)": "2.887000E+02 K",
    "Heat of Vaporizaiton (HVAP)": "2.004100E+04 kJ/kg-mol",
    "Temperature of HVAP (THVAP)": "2.403000E+02 K",
    "Surface Tension (SRF)": "1.126000E+01 dyn/cm",
    "Temperature of SRF (TSRF)": "2.982000E+02 K",
    "Dielectric Constant (DIEL)": NaN,
    "Temperature of DIEL (TDIEL)": NaN,
    "Refractive Index (RFI)": NaN,
    "Temperature of RFI (TRFI)": NaN,
    "Lower Flammability Limit(FLL)": "2.400000E+00 % in Air",
    "Upper Flammability Limit(FLU)": "1.030000E+01 % in Air",
    "Flash Point (Open Cup Method)": NaN,
    "Flash Point (Closed Cup Method)": NaN,
    "Autoignition Temperature (AIGT)": "7.731500E+02 K",
    "NFPA Rating (Health)": "1",
    "NFPA Rating (Fire)": "4",
    "NFPA Rating (Safety)": NaN,
    "Class": "Naphtenic Hydrocarbons",
    "Subclass": "Cycloalkanes",
    "SMILES": "C1CC1"
}