{
    "ID": "45",
    "Name": "3,3-DIMETHYLPENTANE",
    "Synonyms": NaN,
    "CAS No.": "562-49-2",
    "Formula": "C7H16",
    "Molecular Wt. (WT)": "1.00203E+02",
    "Normal Boiling Point Temp. (TB)": "3.59210E+02 K",
    "Freezing Point Temp. (TF)": "1.38200E+02 K",
    "Triple Point Temp. (TT)": NaN,
    "Triple Point Press. (PT)": NaN,
    "Critical Temperature. (TC)": "5.36400E+02 K",
    "Critical Pressure (PC)": "2.95000E+03 kPa",
    "Critical Volume (VC)": "4.14000E-01 m^3/kg-mol",
    "Critical Compressibility (ZC)": "2.73840E-01",
    "Accentric Factor (ACCF)": "2.67000E-01",
    "Vapor Pressure": {
        "Equation Name": "KDB Correlation Equation",
        "Equation": "ln(Pvp) = A*ln(T) + B/T + C + D*T^2 where Pvp in kPa, T in K",
        "Coefficient A": "-8.015497E+00",
        "Coefficient B": "-6.064985E+03",
        "Coefficient C": "6.785242E+01",
        "Coefficient D": "6.290216E-06",
        "Coefficient E": NaN,
        "Coefficient F": NaN,
        "Coefficient G": NaN,
        "T range, from": "138.70 K",
        "T range, to": "536.40 K"
    },
    "Heat Capacity (Ideal Gas)": {
        "Equation Name": "Polynomial Equation",
        "Equation": "Cp = A + B*T + C*T^2 + D*T^3 + E*T^4  where Cp in kJ/kg-mol , T in K",
        "Coefficient A": "9.351221E+00",
        "Coefficient B": "5.207002E-01",
        "Coefficient C": "1.894866E-04",
        "Coefficient D": "-5.724763E-07",
        "Coefficient E": "2.289226E-10",
        "Coefficient F": NaN,
        "Coefficient G": NaN,
        "T range, from": NaN,
        "T range, to": NaN
    },
    "Heat Capacity (Liquid)": NaN,
    "Viscosity (Gas, Low P)": NaN,
    "Viscosity (Liquid)": NaN,
    "Themal Conductivity (Gas, Low P)": NaN,
    "Themal Conductivity (Liquid)": NaN,
    "Surface Tension": NaN,
    "Partial Molar Volume (VOLP)": NaN,
    "Solubility Parameters (SOLP)": "1.447997E+04 (J/cm^3)^0.5",
    "SRK accentric factor (WSRK)": "2.681000E-01",
    "COSTALD Characteristic Volume (VSTAR)": "4.137000E-01 m^3/kg-mol",
    "Rackett parameter (ZRA)": "2.707000E-01",
    "Aniline Point (ANP)": "3.436500E+02 K",
    "H(formation,ideal gas)at 25 C": "-2.017000E+05 kJ/kg-mol",
    "G(formation,ideal gas) at 25 C": "2.640000E+03 kJ/kg-mol",
    "Heat of Combustion, Gross form (HCB1)": "4.806705E+06 kJ/kg-mol",
    "Heat of Combustion, Net form (HCB2)": "4.454580E+06 kJ/kg-mol",
    "Van der Waals Volume (VDWV)": NaN,
    "Van der Waals Area (VDWA)": NaN,
    "UNIQUAC Ri Parameter (RI)": NaN,
    "UNIQUAC Qi Parameter (QI)": NaN,
    "Dipole Moment (DM)": "0.000000E+00 debye",
    "Radius of Gyration (GYRAD)": NaN,
    "Liquid Density (DENL)": "6.915933E-03 g-mol/cm^3",
    "Temperature of DENL (TDENL)": "2.930000E+02 K",
    "Heat of Vaporizaiton (HVAP)": "2.964800E+04 kJ/kg-mol",
    "Temperature of HVAP (THVAP)": "3.592000E+02 K",
    "Surface Tension (SRF)": "1.910000E+01 dyn/cm",
    "Temperature of SRF (TSRF)": "2.982000E+02 K",
    "Dielectric Constant (DIEL)": NaN,
    "Temperature of DIEL (TDIEL)": NaN,
    "Refractive Index (RFI)": "1.388420E+00",
    "Temperature of RFI (TRFI)": "2.981500E+02 K",
    "Lower Flammability Limit(FLL)": NaN,
    "Upper Flammability Limit(FLU)": NaN,
    "Flash Point (Open Cup Method)": NaN,
    "Flash Point (Closed Cup Method)": NaN,
    "Autoignition Temperature (AIGT)": NaN,
    "NFPA Rating (Health)": NaN,
    "NFPA Rating (Fire)": NaN,
    "NFPA Rating (Safety)": NaN,
    "Class": "Paraffinic Hydrocarbons",
    "Subclass": "Branched Alkanes",
    "SMILES": "CCC(C)(C)CC"
}