{
    "ID": "454",
    "Name": "CYCLOPENTANE",
    "Synonyms": "PENTAMETHYLENE",
    "CAS No.": "287-92-3",
    "Formula": "C5H10",
    "Molecular Wt. (WT)": "7.01340E+01",
    "Normal Boiling Point Temp. (TB)": "3.22400E+02 K",
    "Freezing Point Temp. (TF)": "1.79300E+02 K",
    "Triple Point Temp. (TT)": NaN,
    "Triple Point Press. (PT)": NaN,
    "Critical Temperature. (TC)": "5.11700E+02 K",
    "Critical Pressure (PC)": "4.51000E+03 kPa",
    "Critical Volume (VC)": "2.59000E-01 m^3/kg-mol",
    "Critical Compressibility (ZC)": "2.74552E-01",
    "Accentric Factor (ACCF)": "1.96000E-01",
    "Vapor Pressure": {
        "Equation Name": "KDB Correlation Equation",
        "Equation": "ln(Pvp) = A*ln(T) + B/T + C + D*T^2 where Pvp in kPa, T in K",
        "Coefficient A": "-7.584158E+00",
        "Coefficient B": "-5.389261E+03",
        "Coefficient C": "6.440236E+01",
        "Coefficient D": "7.085543E-06",
        "Coefficient E": NaN,
        "Coefficient F": NaN,
        "Coefficient G": NaN,
        "T range, from": "179.28 K",
        "T range, to": "511.76 K"
    },
    "Heat Capacity (Ideal Gas)": {
        "Equation Name": "Polynomial Equation",
        "Equation": "Cp = A + B*T + C*T^2 + D*T^3 + E*T^4  where Cp in kJ/kg-mol , T in K",
        "Coefficient A": "-6.187663E+01",
        "Coefficient B": "5.808505E-01",
        "Coefficient C": "-3.630713E-04",
        "Coefficient D": "1.019883E-07",
        "Coefficient E": "-7.702859E-12",
        "Coefficient F": NaN,
        "Coefficient G": NaN,
        "T range, from": NaN,
        "T range, to": NaN
    },
    "Heat Capacity (Liquid)": {
        "Equation Name": "Polynomial Equation",
        "Equation": "Cp = A + B*T + C*T^2 + D*T^3  where T in K and Cp in kJ/kg-mol.K",
        "Coefficient A": "-23.81858",
        "Coefficient B": "1.216605",
        "Coefficient C": "-3.861679E-03",
        "Coefficient D": "4.680379E-06",
        "Coefficient E": NaN,
        "Coefficient F": NaN,
        "Coefficient G": NaN,
        "T range, from": "179.27 K",
        "T range, to": "493.15 K"
    },
    "Viscosity (Gas, Low P)": {
        "Equation Name": "Polynomial Equation",
        "Equation": "VISG = A + B*T + C*T^2 where T in K and VISG in cP",
        "Coefficient A": "-.0007935",
        "Coefficient B": "2.888E-05",
        "Coefficient C": "-5.238E-09",
        "Coefficient D": "0",
        "Coefficient E": NaN,
        "Coefficient F": NaN,
        "Coefficient G": NaN,
        "T range, from": "273.15 K",
        "T range, to": "1273.15 K"
    },
    "Viscosity (Liquid)": {
        "Equation Name": "Quasipolynomial Equation",
        "Equation": "ln (VISL) = A + B/T + C*T + D*T^2  where T in K and VISL in cP.",
        "Coefficient A": "-6.021",
        "Coefficient B": "1118",
        "Coefficient C": ".00728",
        "Coefficient D": "-8.661999E-06",
        "Coefficient E": NaN,
        "Coefficient F": NaN,
        "Coefficient G": NaN,
        "T range, from": "183.15 K",
        "T range, to": "508.15 K"
    },
    "Themal Conductivity (Gas, Low P)": {
        "Equation Name": "Polynomial Equation",
        "Equation": "THG = A + B*T + C*T^2 + D*T^3  where T in K and THG in W/m.K",
        "Coefficient A": "-.008522",
        "Coefficient B": "2.475E-05",
        "Coefficient C": "1.621E-07",
        "Coefficient D": "-6.914E-11",
        "Coefficient E": NaN,
        "Coefficient F": NaN,
        "Coefficient G": NaN,
        "T range, from": "273 K",
        "T range, to": "1070 K"
    },
    "Themal Conductivity (Liquid)": {
        "Equation Name": "Polynomial Equation",
        "Equation": "THL = A + B*T + C*T^2 + D*T^3  where T in K and THL in W/m.K",
        "Coefficient A": ".2143",
        "Coefficient B": "-.0002588",
        "Coefficient C": "-5.82E-08",
        "Coefficient D": "0",
        "Coefficient E": NaN,
        "Coefficient F": NaN,
        "Coefficient G": NaN,
        "T range, from": "180 K",
        "T range, to": "488 K"
    },
    "Surface Tension": NaN,
    "Partial Molar Volume (VOLP)": "9.472000E-02 m^3/kg-mol",
    "Solubility Parameters (SOLP)": "1.658682E+04 (J/cm^3)^0.5",
    "SRK accentric factor (WSRK)": "1.969000E-01",
    "COSTALD Characteristic Volume (VSTAR)": "2.600000E-01 m^3/kg-mol",
    "Rackett parameter (ZRA)": "2.745000E-01",
    "Aniline Point (ANP)": "2.899500E+02 K",
    "H(formation,ideal gas)at 25 C": "-7.729000E+04 kJ/kg-mol",
    "G(formation,ideal gas) at 25 C": "3.860000E+04 kJ/kg-mol",
    "Heat of Combustion, Gross form (HCB1)": "3.290925E+06 kJ/kg-mol",
    "Heat of Combustion, Net form (HCB2)": "3.070889E+06 kJ/kg-mol",
    "Van der Waals Volume (VDWV)": NaN,
    "Van der Waals Area (VDWA)": NaN,
    "UNIQUAC Ri Parameter (RI)": "3.372000E+00",
    "UNIQUAC Qi Parameter (QI)": "2.700000E+00",
    "Dipole Moment (DM)": "0.000000E+00 debye",
    "Radius of Gyration (GYRAD)": "3.120000E+00",
    "Liquid Density (DENL)": "1.062252E-02 g-mol/cm^3",
    "Temperature of DENL (TDENL)": "2.930000E+02 K",
    "Heat of Vaporizaiton (HVAP)": "2.729600E+04 kJ/kg-mol",
    "Temperature of HVAP (THVAP)": "3.224000E+02 K",
    "Surface Tension (SRF)": "2.261000E+01 dyn/cm",
    "Temperature of SRF (TSRF)": "2.932000E+02 K",
    "Dielectric Constant (DIEL)": NaN,
    "Temperature of DIEL (TDIEL)": NaN,
    "Refractive Index (RFI)": "1.403630E+00",
    "Temperature of RFI (TRFI)": "2.981500E+02 K",
    "Lower Flammability Limit(FLL)": "1.100000E+00 % in Air",
    "Upper Flammability Limit(FLU)": "8.700000E+00 % in Air",
    "Flash Point (Open Cup Method)": "2.664833E+02 K",
    "Flash Point (Closed Cup Method)": NaN,
    "Autoignition Temperature (AIGT)": "6.531500E+02 K",
    "NFPA Rating (Health)": "1",
    "NFPA Rating (Fire)": "3",
    "NFPA Rating (Safety)": NaN,
    "Class": "Naphtenic Hydrocarbons",
    "Subclass": "Cycloalkanes",
    "SMILES": "C1CCCC1"
}