{
    "ID": "46",
    "Name": "2,2,3-TRIMETHYLBUTANE",
    "Synonyms": "TRIPTAN, TRIPTANE",
    "CAS No.": "464-06-2",
    "Formula": "C7H16",
    "Molecular Wt. (WT)": "1.00203E+02",
    "Normal Boiling Point Temp. (TB)": "3.54010E+02 K",
    "Freezing Point Temp. (TF)": "2.48000E+02 K",
    "Triple Point Temp. (TT)": NaN,
    "Triple Point Press. (PT)": NaN,
    "Critical Temperature. (TC)": "5.31100E+02 K",
    "Critical Pressure (PC)": "2.95000E+03 kPa",
    "Critical Volume (VC)": "3.98000E-01 m^3/kg-mol",
    "Critical Compressibility (ZC)": "2.65884E-01",
    "Accentric Factor (ACCF)": "2.50000E-01",
    "Vapor Pressure": {
        "Equation Name": "KDB Correlation Equation",
        "Equation": "ln(Pvp) = A*ln(T) + B/T + C + D*T^2 where Pvp in kPa, T in K",
        "Coefficient A": "-8.378313E+00",
        "Coefficient B": "-6.028226E+03",
        "Coefficient C": "6.995284E+01",
        "Coefficient D": "6.935999E-06",
        "Coefficient E": NaN,
        "Coefficient F": NaN,
        "Coefficient G": NaN,
        "T range, from": "248.57 K",
        "T range, to": "531.17 K"
    },
    "Heat Capacity (Ideal Gas)": {
        "Equation Name": "Polynomial Equation",
        "Equation": "Cp = A + B*T + C*T^2 + D*T^3 + E*T^4  where Cp in kJ/kg-mol , T in K",
        "Coefficient A": "9.351221E+00",
        "Coefficient B": "5.207002E-01",
        "Coefficient C": "1.894866E-04",
        "Coefficient D": "-5.724763E-07",
        "Coefficient E": "2.289226E-10",
        "Coefficient F": NaN,
        "Coefficient G": NaN,
        "T range, from": NaN,
        "T range, to": NaN
    },
    "Heat Capacity (Liquid)": NaN,
    "Viscosity (Gas, Low P)": NaN,
    "Viscosity (Liquid)": NaN,
    "Themal Conductivity (Gas, Low P)": NaN,
    "Themal Conductivity (Liquid)": NaN,
    "Surface Tension": NaN,
    "Partial Molar Volume (VOLP)": "1.657700E-01 m^3/kg-mol",
    "Solubility Parameters (SOLP)": "1.421406E+04 (J/cm^3)^0.5",
    "SRK accentric factor (WSRK)": "2.511000E-01",
    "COSTALD Characteristic Volume (VSTAR)": "4.125000E-01 m^3/kg-mol",
    "Rackett parameter (ZRA)": "2.727000E-01",
    "Aniline Point (ANP)": "3.453500E+02 K",
    "H(formation,ideal gas)at 25 C": "-2.049000E+05 kJ/kg-mol",
    "G(formation,ideal gas) at 25 C": "4.270000E+03 kJ/kg-mol",
    "Heat of Combustion, Gross form (HCB1)": "4.804362E+06 kJ/kg-mol",
    "Heat of Combustion, Net form (HCB2)": "4.452236E+06 kJ/kg-mol",
    "Van der Waals Volume (VDWV)": NaN,
    "Van der Waals Area (VDWA)": NaN,
    "UNIQUAC Ri Parameter (RI)": "5.171900E+00",
    "UNIQUAC Qi Parameter (QI)": "4.468000E+00",
    "Dipole Moment (DM)": "0.000000E+00 debye",
    "Radius of Gyration (GYRAD)": NaN,
    "Liquid Density (DENL)": "6.885994E-03 g-mol/cm^3",
    "Temperature of DENL (TDENL)": "2.930000E+02 K",
    "Heat of Vaporizaiton (HVAP)": "2.894900E+04 kJ/kg-mol",
    "Temperature of HVAP (THVAP)": "3.540000E+02 K",
    "Surface Tension (SRF)": "1.827000E+01 dyn/cm",
    "Temperature of SRF (TSRF)": "2.982000E+02 K",
    "Dielectric Constant (DIEL)": NaN,
    "Temperature of DIEL (TDIEL)": NaN,
    "Refractive Index (RFI)": "1.386920E+00",
    "Temperature of RFI (TRFI)": "2.981500E+02 K",
    "Lower Flammability Limit(FLL)": NaN,
    "Upper Flammability Limit(FLU)": NaN,
    "Flash Point (Open Cup Method)": NaN,
    "Flash Point (Closed Cup Method)": NaN,
    "Autoignition Temperature (AIGT)": NaN,
    "NFPA Rating (Health)": NaN,
    "NFPA Rating (Fire)": 3.0,
    "NFPA Rating (Safety)": NaN,
    "Class": "Paraffinic Hydrocarbons",
    "Subclass": "Branched Alkanes",
    "SMILES": "CC(C)C(C)(C)C"
}