{
    "ID": "469",
    "Name": "METHYLCYCLOPENTANE",
    "Synonyms": NaN,
    "CAS No.": "96-37-7",
    "Formula": "C6H12",
    "Molecular Wt. (WT)": "8.41608E+01",
    "Normal Boiling Point Temp. (TB)": "3.44900E+02 K",
    "Freezing Point Temp. (TF)": "1.30600E+02 K",
    "Triple Point Temp. (TT)": NaN,
    "Triple Point Press. (PT)": NaN,
    "Critical Temperature. (TC)": "5.32700E+02 K",
    "Critical Pressure (PC)": "3.79000E+03 kPa",
    "Critical Volume (VC)": "3.18000E-01 m^3/kg-mol",
    "Critical Compressibility (ZC)": "2.72112E-01",
    "Accentric Factor (ACCF)": "2.31000E-01",
    "Vapor Pressure": {
        "Equation Name": "KDB Correlation Equation",
        "Equation": "ln(Pvp) = A*ln(T) + B/T + C + D*T^2 where Pvp in kPa, T in K",
        "Coefficient A": "-8.792135E+00",
        "Coefficient B": "-6.086430E+03",
        "Coefficient C": "7.275810E+01",
        "Coefficient D": "7.402073E-06",
        "Coefficient E": NaN,
        "Coefficient F": NaN,
        "Coefficient G": NaN,
        "T range, from": "130.73 K",
        "T range, to": "532.79 K"
    },
    "Heat Capacity (Ideal Gas)": {
        "Equation Name": "Polynomial Equation",
        "Equation": "Cp = A + B*T + C*T^2 + D*T^3 + E*T^4  where Cp in kJ/kg-mol , T in K",
        "Coefficient A": "-5.665865E+01",
        "Coefficient B": "6.703619E-01",
        "Coefficient C": "-4.195267E-04",
        "Coefficient D": "1.180796E-07",
        "Coefficient E": "-8.965641E-12",
        "Coefficient F": NaN,
        "Coefficient G": NaN,
        "T range, from": NaN,
        "T range, to": NaN
    },
    "Heat Capacity (Liquid)": NaN,
    "Viscosity (Gas, Low P)": NaN,
    "Viscosity (Liquid)": {
        "Equation Name": "Andrade Equation",
        "Equation": "ln (VISL) = A + B/ T  where T in K and VISL in cP.",
        "Coefficient A": "-4.17",
        "Coefficient B": "1014",
        "Coefficient C": "0",
        "Coefficient D": "0",
        "Coefficient E": NaN,
        "Coefficient F": NaN,
        "Coefficient G": NaN,
        "T range, from": "248.15 K",
        "T range, to": "353.15 K"
    },
    "Themal Conductivity (Gas, Low P)": NaN,
    "Themal Conductivity (Liquid)": NaN,
    "Surface Tension": NaN,
    "Partial Molar Volume (VOLP)": "1.131300E-01 m^3/kg-mol",
    "Solubility Parameters (SOLP)": "1.603454E+04 (J/cm^3)^0.5",
    "SRK accentric factor (WSRK)": "2.322000E-01",
    "COSTALD Characteristic Volume (VSTAR)": "3.181000E-01 m^3/kg-mol",
    "Rackett parameter (ZRA)": "2.711000E-01",
    "Aniline Point (ANP)": "3.061500E+02 K",
    "H(formation,ideal gas)at 25 C": "-1.068000E+05 kJ/kg-mol",
    "G(formation,ideal gas) at 25 C": "3.580000E+04 kJ/kg-mol",
    "Heat of Combustion, Gross form (HCB1)": "3.938316E+06 kJ/kg-mol",
    "Heat of Combustion, Net form (HCB2)": "3.674263E+06 kJ/kg-mol",
    "Van der Waals Volume (VDWV)": NaN,
    "Van der Waals Area (VDWA)": NaN,
    "UNIQUAC Ri Parameter (RI)": "4.045600E+00",
    "UNIQUAC Qi Parameter (QI)": "3.236000E+00",
    "Dipole Moment (DM)": "0.000000E+00 debye",
    "Radius of Gyration (GYRAD)": "3.167000E+00",
    "Liquid Density (DENL)": "8.959041E-03 g-mol/cm^3",
    "Temperature of DENL (TDENL)": "2.890000E+02 K",
    "Heat of Vaporizaiton (HVAP)": "2.907900E+04 kJ/kg-mol",
    "Temperature of HVAP (THVAP)": "3.450000E+02 K",
    "Surface Tension (SRF)": "2.230000E+01 dyn/cm",
    "Temperature of SRF (TSRF)": "2.932000E+02 K",
    "Dielectric Constant (DIEL)": NaN,
    "Temperature of DIEL (TDIEL)": NaN,
    "Refractive Index (RFI)": "1.407000E+00",
    "Temperature of RFI (TRFI)": "2.981500E+02 K",
    "Lower Flammability Limit(FLL)": "1.100000E+00 % in Air",
    "Upper Flammability Limit(FLU)": "8.700000E+00 % in Air",
    "Flash Point (Open Cup Method)": "2.553722E+02 K",
    "Flash Point (Closed Cup Method)": NaN,
    "Autoignition Temperature (AIGT)": "6.020389E+02 K",
    "NFPA Rating (Health)": "2",
    "NFPA Rating (Fire)": "3",
    "NFPA Rating (Safety)": NaN,
    "Class": "Naphtenic Hydrocarbons",
    "Subclass": "Cycloalkanes",
    "SMILES": "CC1CCCC1"
}