{
    "ID": "47",
    "Name": "2-METHYLHEPTANE",
    "Synonyms": "METHYLHEPTANE",
    "CAS No.": "592-27-8",
    "Formula": "C8H18",
    "Molecular Wt. (WT)": "1.14230E+02",
    "Normal Boiling Point Temp. (TB)": "3.90810E+02 K",
    "Freezing Point Temp. (TF)": "1.64160E+02 K",
    "Triple Point Temp. (TT)": NaN,
    "Triple Point Press. (PT)": NaN,
    "Critical Temperature. (TC)": "5.59700E+02 K",
    "Critical Pressure (PC)": "2.50000E+03 kPa",
    "Critical Volume (VC)": "4.88000E-01 m^3/kg-mol",
    "Critical Compressibility (ZC)": "2.62161E-01",
    "Accentric Factor (ACCF)": "3.78000E-01",
    "Vapor Pressure": {
        "Equation Name": "KDB Correlation Equation",
        "Equation": "ln(Pvp) = A*ln(T) + B/T + C + D*T^2 where Pvp in kPa, T in K",
        "Coefficient A": "-1.020642E+01",
        "Coefficient B": "-7.472296E+03",
        "Coefficient C": "8.362096E+01",
        "Coefficient D": "6.780708E-06",
        "Coefficient E": NaN,
        "Coefficient F": NaN,
        "Coefficient G": NaN,
        "T range, from": "164.16 K",
        "T range, to": "559.64 K"
    },
    "Heat Capacity (Ideal Gas)": {
        "Equation Name": "Polynomial Equation",
        "Equation": "Cp = A + B*T + C*T^2 + D*T^3 + E*T^4  where Cp in kJ/kg-mol , T in K",
        "Coefficient A": "7.707508E+00",
        "Coefficient B": "6.524220E-01",
        "Coefficient C": "-9.356719E-05",
        "Coefficient D": "-2.345755E-07",
        "Coefficient E": "1.052861E-10",
        "Coefficient F": NaN,
        "Coefficient G": NaN,
        "T range, from": NaN,
        "T range, to": NaN
    },
    "Heat Capacity (Liquid)": NaN,
    "Viscosity (Gas, Low P)": NaN,
    "Viscosity (Liquid)": NaN,
    "Themal Conductivity (Gas, Low P)": NaN,
    "Themal Conductivity (Liquid)": NaN,
    "Surface Tension": NaN,
    "Partial Molar Volume (VOLP)": NaN,
    "Solubility Parameters (SOLP)": "1.503225E+04 (J/cm^3)^0.5",
    "SRK accentric factor (WSRK)": "3.780000E-01",
    "COSTALD Characteristic Volume (VSTAR)": "4.889000E-01 m^3/kg-mol",
    "Rackett parameter (ZRA)": NaN,
    "Aniline Point (ANP)": "3.471500E+02 K",
    "H(formation,ideal gas)at 25 C": "-2.156000E+05 kJ/kg-mol",
    "G(formation,ideal gas) at 25 C": "1.277000E+04 kJ/kg-mol",
    "Heat of Combustion, Gross form (HCB1)": "5.465476E+06 kJ/kg-mol",
    "Heat of Combustion, Net form (HCB2)": "5.069335E+06 kJ/kg-mol",
    "Van der Waals Volume (VDWV)": NaN,
    "Van der Waals Area (VDWA)": NaN,
    "UNIQUAC Ri Parameter (RI)": NaN,
    "UNIQUAC Qi Parameter (QI)": NaN,
    "Dipole Moment (DM)": NaN,
    "Radius of Gyration (GYRAD)": NaN,
    "Liquid Density (DENL)": "6.145485E-03 g-mol/cm^3",
    "Temperature of DENL (TDENL)": "2.890000E+02 K",
    "Heat of Vaporizaiton (HVAP)": "3.380700E+04 kJ/kg-mol",
    "Temperature of HVAP (THVAP)": "3.908000E+02 K",
    "Surface Tension (SRF)": "2.027000E+01 dyn/cm",
    "Temperature of SRF (TSRF)": "2.982000E+02 K",
    "Dielectric Constant (DIEL)": NaN,
    "Temperature of DIEL (TDIEL)": NaN,
    "Refractive Index (RFI)": "1.392570E+00",
    "Temperature of RFI (TRFI)": "2.981500E+02 K",
    "Lower Flammability Limit(FLL)": NaN,
    "Upper Flammability Limit(FLU)": NaN,
    "Flash Point (Open Cup Method)": NaN,
    "Flash Point (Closed Cup Method)": NaN,
    "Autoignition Temperature (AIGT)": NaN,
    "NFPA Rating (Health)": NaN,
    "NFPA Rating (Fire)": NaN,
    "NFPA Rating (Safety)": NaN,
    "Class": "Paraffinic Hydrocarbons",
    "Subclass": "Branched Alkanes",
    "SMILES": "CCCCCC(C)C"
}