{
    "ID": "470",
    "Name": "CYCLOHEXANE",
    "Synonyms": "HEXAHYDROBENZENE, HEXAMETHYLENE, HEXANAPHTHENE",
    "CAS No.": "110-82-7",
    "Formula": "C6H12",
    "Molecular Wt. (WT)": "8.41608E+01",
    "Normal Boiling Point Temp. (TB)": "3.53880E+02 K",
    "Freezing Point Temp. (TF)": "2.79700E+02 K",
    "Triple Point Temp. (TT)": "2.79830E+02 K",
    "Triple Point Press. (PT)": "5.40000E+00 kPa",
    "Critical Temperature. (TC)": "5.53800E+02 K",
    "Critical Pressure (PC)": "4.08000E+03 kPa",
    "Critical Volume (VC)": "3.08000E-01 m^3/kg-mol",
    "Critical Compressibility (ZC)": "2.72911E-01",
    "Accentric Factor (ACCF)": "2.12000E-01",
    "Vapor Pressure": {
        "Equation Name": "KDB Correlation Equation",
        "Equation": "ln(Pvp) = A*ln(T) + B/T + C + D*T^2 where Pvp in kPa, T in K",
        "Coefficient A": "-9.200978E+00",
        "Coefficient B": "-6.354898E+03",
        "Coefficient C": "7.565058E+01",
        "Coefficient D": "7.374814E-06",
        "Coefficient E": NaN,
        "Coefficient F": NaN,
        "Coefficient G": NaN,
        "T range, from": "279.69 K",
        "T range, to": "553.54 K"
    },
    "Heat Capacity (Ideal Gas)": {
        "Equation Name": "Polynomial Equation",
        "Equation": "Cp = A + B*T + C*T^2 + D*T^3 + E*T^4  where Cp in kJ/kg-mol , T in K",
        "Coefficient A": "-6.373333E+01",
        "Coefficient B": "6.444021E-01",
        "Coefficient C": "-2.633224E-04",
        "Coefficient D": "-3.784166E-08",
        "Coefficient E": "3.795949E-11",
        "Coefficient F": NaN,
        "Coefficient G": NaN,
        "T range, from": NaN,
        "T range, to": NaN
    },
    "Heat Capacity (Liquid)": {
        "Equation Name": "Polynomial Equation",
        "Equation": "Cp = A + B*T + C*T^2 + D*T^3  where T in K and Cp in kJ/kg-mol.K",
        "Coefficient A": "-452.1334",
        "Coefficient B": "4.715004",
        "Coefficient C": "-1.235972E-02",
        "Coefficient D": "1.13632E-05",
        "Coefficient E": NaN,
        "Coefficient F": NaN,
        "Coefficient G": NaN,
        "T range, from": "279.7 K",
        "T range, to": "533.15 K"
    },
    "Viscosity (Gas, Low P)": {
        "Equation Name": "Polynomial Equation",
        "Equation": "VISG = A + B*T + C*T^2 where T in K and VISG in cP",
        "Coefficient A": "-.0004705",
        "Coefficient B": "2.632E-05",
        "Coefficient C": "-4.41E-09",
        "Coefficient D": "0",
        "Coefficient E": NaN,
        "Coefficient F": NaN,
        "Coefficient G": NaN,
        "T range, from": "273.15 K",
        "T range, to": "1273.15 K"
    },
    "Viscosity (Liquid)": {
        "Equation Name": "Quasipolynomial Equation",
        "Equation": "ln (VISL) = A + B/T + C*T + D*T^2  where T in K and VISL in cP.",
        "Coefficient A": "-4.398",
        "Coefficient B": "1380",
        "Coefficient C": "-.00155",
        "Coefficient D": "1.157E-06",
        "Coefficient E": NaN,
        "Coefficient F": NaN,
        "Coefficient G": NaN,
        "T range, from": "280.15 K",
        "T range, to": "553.15 K"
    },
    "Themal Conductivity (Gas, Low P)": {
        "Equation Name": "Polynomial Equation",
        "Equation": "THG = A + B*T + C*T^2 + D*T^3  where T in K and THG in W/m.K",
        "Coefficient A": "-.008614",
        "Coefficient B": "1.863E-05",
        "Coefficient C": "1.704E-07",
        "Coefficient D": "-7.249E-11",
        "Coefficient E": NaN,
        "Coefficient F": NaN,
        "Coefficient G": NaN,
        "T range, from": "273 K",
        "T range, to": "1070 K"
    },
    "Themal Conductivity (Liquid)": {
        "Equation Name": "Polynomial Equation",
        "Equation": "THL = A + B*T + C*T^2 + D*T^3  where T in K and THL in W/m.K",
        "Coefficient A": ".1626",
        "Coefficient B": "-9.513E-05",
        "Coefficient C": "-1.382E-07",
        "Coefficient D": "0",
        "Coefficient E": NaN,
        "Coefficient F": NaN,
        "Coefficient G": NaN,
        "T range, from": "267 K",
        "T range, to": "527 K"
    },
    "Surface Tension": NaN,
    "Partial Molar Volume (VOLP)": "1.087500E-01 m^3/kg-mol",
    "Solubility Parameters (SOLP)": "1.677091E+04 (J/cm^3)^0.5",
    "SRK accentric factor (WSRK)": "2.128000E-01",
    "COSTALD Characteristic Volume (VSTAR)": "3.090000E-01 m^3/kg-mol",
    "Rackett parameter (ZRA)": "2.729000E-01",
    "Aniline Point (ANP)": "3.041500E+02 K",
    "H(formation,ideal gas)at 25 C": "-1.232000E+05 kJ/kg-mol",
    "G(formation,ideal gas) at 25 C": "3.178000E+04 kJ/kg-mol",
    "Heat of Combustion, Gross form (HCB1)": "3.919822E+06 kJ/kg-mol",
    "Heat of Combustion, Net form (HCB2)": "3.655770E+06 kJ/kg-mol",
    "Van der Waals Volume (VDWV)": NaN,
    "Van der Waals Area (VDWA)": NaN,
    "UNIQUAC Ri Parameter (RI)": "4.046400E+00",
    "UNIQUAC Qi Parameter (QI)": "3.240000E+00",
    "Dipole Moment (DM)": "3.000000E-01 debye",
    "Radius of Gyration (GYRAD)": "3.261000E+00",
    "Liquid Density (DENL)": "9.256091E-03 g-mol/cm^3",
    "Temperature of DENL (TDENL)": "2.930000E+02 K",
    "Heat of Vaporizaiton (HVAP)": "2.995700E+04 kJ/kg-mol",
    "Temperature of HVAP (THVAP)": "3.539000E+02 K",
    "Surface Tension (SRF)": "2.524000E+01 dyn/cm",
    "Temperature of SRF (TSRF)": "2.932000E+02 K",
    "Dielectric Constant (DIEL)": NaN,
    "Temperature of DIEL (TDIEL)": NaN,
    "Refractive Index (RFI)": "1.423540E+00",
    "Temperature of RFI (TRFI)": "2.981500E+02 K",
    "Lower Flammability Limit(FLL)": "1.330000E+00 % in Air",
    "Upper Flammability Limit(FLU)": "8.350000E+00 % in Air",
    "Flash Point (Open Cup Method)": "2.531500E+02 K",
    "Flash Point (Closed Cup Method)": NaN,
    "Autoignition Temperature (AIGT)": "5.431500E+02 K",
    "NFPA Rating (Health)": "1",
    "NFPA Rating (Fire)": "3",
    "NFPA Rating (Safety)": NaN,
    "Class": "Naphtenic Hydrocarbons",
    "Subclass": "Cycloalkanes",
    "SMILES": "C1CCCCC1"
}