{
    "ID": "471",
    "Name": "ETHYLCYCLOPENTANE",
    "Synonyms": NaN,
    "CAS No.": "1640-89-7",
    "Formula": "C7H14",
    "Molecular Wt. (WT)": "9.81876E+01",
    "Normal Boiling Point Temp. (TB)": "3.76600E+02 K",
    "Freezing Point Temp. (TF)": "1.34710E+02 K",
    "Triple Point Temp. (TT)": NaN,
    "Triple Point Press. (PT)": NaN,
    "Critical Temperature. (TC)": "5.69500E+02 K",
    "Critical Pressure (PC)": "3.40000E+03 kPa",
    "Critical Volume (VC)": "3.75000E-01 m^3/kg-mol",
    "Critical Compressibility (ZC)": "2.69265E-01",
    "Accentric Factor (ACCF)": "2.71000E-01",
    "Vapor Pressure": {
        "Equation Name": "KDB Correlation Equation",
        "Equation": "ln(Pvp) = A*ln(T) + B/T + C + D*T^2 where Pvp in kPa, T in K",
        "Coefficient A": "-1.001168E+01",
        "Coefficient B": "-7.007629E+03",
        "Coefficient C": "8.156187E+01",
        "Coefficient D": "7.367144E-06",
        "Coefficient E": NaN,
        "Coefficient F": NaN,
        "Coefficient G": NaN,
        "T range, from": "134.71 K",
        "T range, to": "569.52 K"
    },
    "Heat Capacity (Ideal Gas)": {
        "Equation Name": "Polynomial Equation",
        "Equation": "Cp = A + B*T + C*T^2 + D*T^3 + E*T^4  where Cp in kJ/kg-mol , T in K",
        "Coefficient A": "-6.247804E+01",
        "Coefficient B": "7.797136E-01",
        "Coefficient C": "-4.893000E-04",
        "Coefficient D": "1.389774E-07",
        "Coefficient E": "-1.061074E-11",
        "Coefficient F": NaN,
        "Coefficient G": NaN,
        "T range, from": NaN,
        "T range, to": NaN
    },
    "Heat Capacity (Liquid)": NaN,
    "Viscosity (Gas, Low P)": NaN,
    "Viscosity (Liquid)": {
        "Equation Name": "Andrade Equation",
        "Equation": "ln (VISL) = A + B/ T  where T in K and VISL in cP.",
        "Coefficient A": "-4",
        "Coefficient B": "998.9",
        "Coefficient C": "0",
        "Coefficient D": "0",
        "Coefficient E": NaN,
        "Coefficient F": NaN,
        "Coefficient G": NaN,
        "T range, from": "253.15 K",
        "T range, to": "383.15 K"
    },
    "Themal Conductivity (Gas, Low P)": NaN,
    "Themal Conductivity (Liquid)": NaN,
    "Surface Tension": NaN,
    "Partial Molar Volume (VOLP)": NaN,
    "Solubility Parameters (SOLP)": "1.623909E+04 (J/cm^3)^0.5",
    "SRK accentric factor (WSRK)": "2.689000E-01",
    "COSTALD Characteristic Volume (VSTAR)": "3.740000E-01 m^3/kg-mol",
    "Rackett parameter (ZRA)": NaN,
    "Aniline Point (ANP)": "3.098500E+02 K",
    "H(formation,ideal gas)at 25 C": "-1.272000E+05 kJ/kg-mol",
    "G(formation,ideal gas) at 25 C": "4.459000E+04 kJ/kg-mol",
    "Heat of Combustion, Gross form (HCB1)": "4.591940E+06 kJ/kg-mol",
    "Heat of Combustion, Net form (HCB2)": "4.283872E+06 kJ/kg-mol",
    "Van der Waals Volume (VDWV)": NaN,
    "Van der Waals Area (VDWA)": NaN,
    "UNIQUAC Ri Parameter (RI)": NaN,
    "UNIQUAC Qi Parameter (QI)": NaN,
    "Dipole Moment (DM)": NaN,
    "Radius of Gyration (GYRAD)": NaN,
    "Liquid Density (DENL)": "7.852316E-03 g-mol/cm^3",
    "Temperature of DENL (TDENL)": "2.890000E+02 K",
    "Heat of Vaporizaiton (HVAP)": "3.228000E+04 kJ/kg-mol",
    "Temperature of HVAP (THVAP)": "3.766000E+02 K",
    "Surface Tension (SRF)": "2.388000E+01 dyn/cm",
    "Temperature of SRF (TSRF)": "2.932000E+02 K",
    "Dielectric Constant (DIEL)": NaN,
    "Temperature of DIEL (TDIEL)": NaN,
    "Refractive Index (RFI)": "1.417300E+00",
    "Temperature of RFI (TRFI)": "2.981500E+02 K",
    "Lower Flammability Limit(FLL)": NaN,
    "Upper Flammability Limit(FLU)": NaN,
    "Flash Point (Open Cup Method)": NaN,
    "Flash Point (Closed Cup Method)": NaN,
    "Autoignition Temperature (AIGT)": NaN,
    "NFPA Rating (Health)": 1.0,
    "NFPA Rating (Fire)": 3.0,
    "NFPA Rating (Safety)": NaN,
    "Class": "Naphtenic Hydrocarbons",
    "Subclass": "Cycloalkanes",
    "SMILES": "CCC1CCCC1"
}