{
    "ID": "472",
    "Name": "1,1-DIMETHYLCYCLOPENTANE",
    "Synonyms": "GEM-DIMETHYLCYCLOPENTANE",
    "CAS No.": "1638-26-2",
    "Formula": "C7H14",
    "Molecular Wt. (WT)": "9.81876E+01",
    "Normal Boiling Point Temp. (TB)": "3.61000E+02 K",
    "Freezing Point Temp. (TF)": "2.03400E+02 K",
    "Triple Point Temp. (TT)": NaN,
    "Triple Point Press. (PT)": NaN,
    "Critical Temperature. (TC)": "5.47000E+02 K",
    "Critical Pressure (PC)": "3.44000E+03 kPa",
    "Critical Volume (VC)": "3.60000E-01 m^3/kg-mol",
    "Critical Compressibility (ZC)": "2.72293E-01",
    "Accentric Factor (ACCF)": "2.73000E-01",
    "Vapor Pressure": {
        "Equation Name": "KDB Correlation Equation",
        "Equation": "ln(Pvp) = A*ln(T) + B/T + C + D*T^2 where Pvp in kPa, T in K",
        "Coefficient A": "-1.123809E+01",
        "Coefficient B": "-6.928752E+03",
        "Coefficient C": "8.870165E+01",
        "Coefficient D": "9.909878E-06",
        "Coefficient E": NaN,
        "Coefficient F": NaN,
        "Coefficient G": NaN,
        "T range, from": "203.36 K",
        "T range, to": "547.00 K"
    },
    "Heat Capacity (Ideal Gas)": {
        "Equation Name": "Polynomial Equation",
        "Equation": "Cp = A + B*T + C*T^2 + D*T^3 + E*T^4  where Cp in kJ/kg-mol , T in K",
        "Coefficient A": "-6.558750E+01",
        "Coefficient B": "8.053678E-01",
        "Coefficient C": "-5.162553E-04",
        "Coefficient D": "1.47029E-07",
        "Coefficient E": "-1.129257E-11",
        "Coefficient F": NaN,
        "Coefficient G": NaN,
        "T range, from": NaN,
        "T range, to": NaN
    },
    "Heat Capacity (Liquid)": NaN,
    "Viscosity (Gas, Low P)": NaN,
    "Viscosity (Liquid)": NaN,
    "Themal Conductivity (Gas, Low P)": NaN,
    "Themal Conductivity (Liquid)": NaN,
    "Surface Tension": NaN,
    "Partial Molar Volume (VOLP)": NaN,
    "Solubility Parameters (SOLP)": "1.546180E+04 (J/cm^3)^0.5",
    "SRK accentric factor (WSRK)": "2.691000E-01",
    "COSTALD Characteristic Volume (VSTAR)": "3.754000E-01 m^3/kg-mol",
    "Rackett parameter (ZRA)": "2.768000E-01",
    "Aniline Point (ANP)": "3.181500E+02 K",
    "H(formation,ideal gas)at 25 C": "-1.384000E+05 kJ/kg-mol",
    "G(formation,ideal gas) at 25 C": "3.906000E+04 kJ/kg-mol",
    "Heat of Combustion, Gross form (HCB1)": "4.583321E+06 kJ/kg-mol",
    "Heat of Combustion, Net form (HCB2)": "4.275253E+06 kJ/kg-mol",
    "Van der Waals Volume (VDWV)": NaN,
    "Van der Waals Area (VDWA)": NaN,
    "UNIQUAC Ri Parameter (RI)": NaN,
    "UNIQUAC Qi Parameter (QI)": NaN,
    "Dipole Moment (DM)": NaN,
    "Radius of Gyration (GYRAD)": NaN,
    "Liquid Density (DENL)": "7.730100E-03 g-mol/cm^3",
    "Temperature of DENL (TDENL)": "2.890000E+02 K",
    "Heat of Vaporizaiton (HVAP)": "3.029200E+04 kJ/kg-mol",
    "Temperature of HVAP (THVAP)": "3.610000E+02 K",
    "Surface Tension (SRF)": "2.175000E+01 dyn/cm",
    "Temperature of SRF (TSRF)": "2.932000E+02 K",
    "Dielectric Constant (DIEL)": NaN,
    "Temperature of DIEL (TDIEL)": NaN,
    "Refractive Index (RFI)": "1.410910E+00",
    "Temperature of RFI (TRFI)": "2.981500E+02 K",
    "Lower Flammability Limit(FLL)": NaN,
    "Upper Flammability Limit(FLU)": NaN,
    "Flash Point (Open Cup Method)": NaN,
    "Flash Point (Closed Cup Method)": NaN,
    "Autoignition Temperature (AIGT)": NaN,
    "NFPA Rating (Health)": NaN,
    "NFPA Rating (Fire)": NaN,
    "NFPA Rating (Safety)": NaN,
    "Class": "Naphtenic Hydrocarbons",
    "Subclass": "Cycloalkanes",
    "SMILES": "CC1(CCCC1)C"
}