{
    "ID": "473",
    "Name": "CIS-1,2-DIMETHYLCYCLOPENTANE",
    "Synonyms": "1,CIS-2-DIMETHYLCYCLOPENTANE",
    "CAS No.": "1192-18-3",
    "Formula": "C7H14",
    "Molecular Wt. (WT)": "9.81876E+01",
    "Normal Boiling Point Temp. (TB)": "3.72700E+02 K",
    "Freezing Point Temp. (TF)": "2.19300E+02 K",
    "Triple Point Temp. (TT)": NaN,
    "Triple Point Press. (PT)": NaN,
    "Critical Temperature. (TC)": "5.64800E+02 K",
    "Critical Pressure (PC)": "3.44000E+03 kPa",
    "Critical Volume (VC)": "3.68000E-01 m^3/kg-mol",
    "Critical Compressibility (ZC)": "2.69572E-01",
    "Accentric Factor (ACCF)": "2.69000E-01",
    "Vapor Pressure": {
        "Equation Name": "KDB Correlation Equation",
        "Equation": "ln(Pvp) = A*ln(T) + B/T + C + D*T^2 where Pvp in kPa, T in K",
        "Coefficient A": "-1.011451E+01",
        "Coefficient B": "-6.923935E+03",
        "Coefficient C": "8.199735E+01",
        "Coefficient D": "7.804472E-06",
        "Coefficient E": NaN,
        "Coefficient F": NaN,
        "Coefficient G": NaN,
        "T range, from": "219.26 K",
        "T range, to": "565.15 K"
    },
    "Heat Capacity (Ideal Gas)": {
        "Equation Name": "Polynomial Equation",
        "Equation": "Cp = A + B*T + C*T^2 + D*T^3 + E*T^4  where Cp in kJ/kg-mol , T in K",
        "Coefficient A": "-6.469092E+01",
        "Coefficient B": "8.046575E-01",
        "Coefficient C": "-5.204788E-04",
        "Coefficient D": "1.506156E-07",
        "Coefficient E": "-1.183027E-11",
        "Coefficient F": NaN,
        "Coefficient G": NaN,
        "T range, from": NaN,
        "T range, to": NaN
    },
    "Heat Capacity (Liquid)": NaN,
    "Viscosity (Gas, Low P)": NaN,
    "Viscosity (Liquid)": NaN,
    "Themal Conductivity (Gas, Low P)": NaN,
    "Themal Conductivity (Liquid)": NaN,
    "Surface Tension": NaN,
    "Partial Molar Volume (VOLP)": NaN,
    "Solubility Parameters (SOLP)": "1.613681E+04 (J/cm^3)^0.5",
    "SRK accentric factor (WSRK)": "2.685000E-01",
    "COSTALD Characteristic Volume (VSTAR)": "3.706000E-01 m^3/kg-mol",
    "Rackett parameter (ZRA)": "2.699000E-01",
    "Aniline Point (ANP)": "3.130500E+02 K",
    "H(formation,ideal gas)at 25 C": "-1.296000E+05 kJ/kg-mol",
    "G(formation,ideal gas) at 25 C": "4.576000E+04 kJ/kg-mol",
    "Heat of Combustion, Gross form (HCB1)": "4.590100E+06 kJ/kg-mol",
    "Heat of Combustion, Net form (HCB2)": "4.282031E+06 kJ/kg-mol",
    "Van der Waals Volume (VDWV)": NaN,
    "Van der Waals Area (VDWA)": NaN,
    "UNIQUAC Ri Parameter (RI)": NaN,
    "UNIQUAC Qi Parameter (QI)": NaN,
    "Dipole Moment (DM)": NaN,
    "Radius of Gyration (GYRAD)": NaN,
    "Liquid Density (DENL)": "7.913423E-03 g-mol/cm^3",
    "Temperature of DENL (TDENL)": "2.890000E+02 K",
    "Heat of Vaporizaiton (HVAP)": "3.169800E+04 kJ/kg-mol",
    "Temperature of HVAP (THVAP)": "3.727000E+02 K",
    "Surface Tension (SRF)": "2.271000E+01 dyn/cm",
    "Temperature of SRF (TSRF)": "2.982000E+02 K",
    "Dielectric Constant (DIEL)": NaN,
    "Temperature of DIEL (TDIEL)": NaN,
    "Refractive Index (RFI)": "1.419630E+00",
    "Temperature of RFI (TRFI)": "2.981500E+02 K",
    "Lower Flammability Limit(FLL)": NaN,
    "Upper Flammability Limit(FLU)": NaN,
    "Flash Point (Open Cup Method)": NaN,
    "Flash Point (Closed Cup Method)": NaN,
    "Autoignition Temperature (AIGT)": NaN,
    "NFPA Rating (Health)": NaN,
    "NFPA Rating (Fire)": NaN,
    "NFPA Rating (Safety)": NaN,
    "Class": "Naphtenic Hydrocarbons",
    "Subclass": "Cycloalkanes",
    "SMILES": "C[C@@H]1CCC[C@@H]1C"
}