{
    "ID": "477",
    "Name": "METHYLCYCLOHEXANE",
    "Synonyms": "CYCLOHEXYLMETHANE, HEXAHYDROTOLUENE, SEXTONE B",
    "CAS No.": "108-87-2",
    "Formula": "C7H14",
    "Molecular Wt. (WT)": "9.81876E+01",
    "Normal Boiling Point Temp. (TB)": "3.74080E+02 K",
    "Freezing Point Temp. (TF)": "1.46500E+02 K",
    "Triple Point Temp. (TT)": NaN,
    "Triple Point Press. (PT)": NaN,
    "Critical Temperature. (TC)": "5.72100E+02 K",
    "Critical Pressure (PC)": "3.48000E+03 kPa",
    "Critical Volume (VC)": "3.69000E-01 m^3/kg-mol",
    "Critical Compressibility (ZC)": "2.69958E-01",
    "Accentric Factor (ACCF)": "2.36000E-01",
    "Vapor Pressure": {
        "Equation Name": "KDB Correlation Equation",
        "Equation": "ln(Pvp) = A*ln(T) + B/T + C + D*T^2 where Pvp in kPa, T in K",
        "Coefficient A": "-1.094035E+01",
        "Coefficient B": "-7.126104E+03",
        "Coefficient C": "8.729677E+01",
        "Coefficient D": "8.504101E-06",
        "Coefficient E": NaN,
        "Coefficient F": NaN,
        "Coefficient G": NaN,
        "T range, from": "146.58 K",
        "T range, to": "572.19 K"
    },
    "Heat Capacity (Ideal Gas)": {
        "Equation Name": "Polynomial Equation",
        "Equation": "Cp = A + B*T + C*T^2 + D*T^3 + E*T^4  where Cp in kJ/kg-mol , T in K",
        "Coefficient A": "-7.285385E+01",
        "Coefficient B": "8.336104E-01",
        "Coefficient C": "-5.197436E-04",
        "Coefficient D": "1.408685E-07",
        "Coefficient E": "-1.025515E-11",
        "Coefficient F": NaN,
        "Coefficient G": NaN,
        "T range, from": NaN,
        "T range, to": NaN
    },
    "Heat Capacity (Liquid)": NaN,
    "Viscosity (Gas, Low P)": NaN,
    "Viscosity (Liquid)": {
        "Equation Name": "Andrade Equation",
        "Equation": "ln (VISL) = A + B/ T  where T in K and VISL in cP.",
        "Coefficient A": "-4.48",
        "Coefficient B": "1217",
        "Coefficient C": "0",
        "Coefficient D": "0",
        "Coefficient E": NaN,
        "Coefficient F": NaN,
        "Coefficient G": NaN,
        "T range, from": "248.15 K",
        "T range, to": "383.15 K"
    },
    "Themal Conductivity (Gas, Low P)": NaN,
    "Themal Conductivity (Liquid)": NaN,
    "Surface Tension": NaN,
    "Partial Molar Volume (VOLP)": "1.283400E-01 m^3/kg-mol",
    "Solubility Parameters (SOLP)": "1.601408E+04 (J/cm^3)^0.5",
    "SRK accentric factor (WSRK)": "2.371000E-01",
    "COSTALD Characteristic Volume (VSTAR)": "3.709000E-01 m^3/kg-mol",
    "Rackett parameter (ZRA)": "2.704000E-01",
    "Aniline Point (ANP)": "3.141500E+02 K",
    "H(formation,ideal gas)at 25 C": "-1.549000E+05 kJ/kg-mol",
    "G(formation,ideal gas) at 25 C": "2.730000E+04 kJ/kg-mol",
    "Heat of Combustion, Gross form (HCB1)": "4.565288E+06 kJ/kg-mol",
    "Heat of Combustion, Net form (HCB2)": "4.257136E+06 kJ/kg-mol",
    "Van der Waals Volume (VDWV)": NaN,
    "Van der Waals Area (VDWA)": NaN,
    "UNIQUAC Ri Parameter (RI)": "4.720000E+00",
    "UNIQUAC Qi Parameter (QI)": "3.776000E+00",
    "Dipole Moment (DM)": "0.000000E+00 debye",
    "Radius of Gyration (GYRAD)": "3.747000E+00",
    "Liquid Density (DENL)": "7.882869E-03 g-mol/cm^3",
    "Temperature of DENL (TDENL)": "2.890000E+02 K",
    "Heat of Vaporizaiton (HVAP)": "3.112900E+04 kJ/kg-mol",
    "Temperature of HVAP (THVAP)": "3.741000E+02 K",
    "Surface Tension (SRF)": "2.385000E+01 dyn/cm",
    "Temperature of SRF (TSRF)": "2.932000E+02 K",
    "Dielectric Constant (DIEL)": NaN,
    "Temperature of DIEL (TDIEL)": NaN,
    "Refractive Index (RFI)": "1.420580E+00",
    "Temperature of RFI (TRFI)": "2.981500E+02 K",
    "Lower Flammability Limit(FLL)": NaN,
    "Upper Flammability Limit(FLU)": NaN,
    "Flash Point (Open Cup Method)": NaN,
    "Flash Point (Closed Cup Method)": NaN,
    "Autoignition Temperature (AIGT)": NaN,
    "NFPA Rating (Health)": 2.0,
    "NFPA Rating (Fire)": 3.0,
    "NFPA Rating (Safety)": NaN,
    "Class": "Naphtenic Hydrocarbons",
    "Subclass": "Cycloalkanes",
    "SMILES": "CC1CCCCC1"
}