{
    "ID": "478",
    "Name": "CYCLOHEPTANE",
    "Synonyms": NaN,
    "CAS No.": "291-64-5",
    "Formula": "C7H14",
    "Molecular Wt. (WT)": "9.81876E+01",
    "Normal Boiling Point Temp. (TB)": "3.91630E+02 K",
    "Freezing Point Temp. (TF)": "2.65120E+02 K",
    "Triple Point Temp. (TT)": NaN,
    "Triple Point Press. (PT)": NaN,
    "Critical Temperature. (TC)": "6.04200E+02 K",
    "Critical Pressure (PC)": "3.82000E+03 kPa",
    "Critical Volume (VC)": "3.53000E-01 m^3/kg-mol",
    "Critical Compressibility (ZC)": "2.68424E-01",
    "Accentric Factor (ACCF)": "2.37000E-01",
    "Vapor Pressure": {
        "Equation Name": "KDB Correlation Equation",
        "Equation": "ln(Pvp) = A*ln(T) + B/T + C + D*T^2 where Pvp in kPa, T in K",
        "Coefficient A": "-1.027525E+01",
        "Coefficient B": "-7.382209E+03",
        "Coefficient C": "8.374658E+01",
        "Coefficient D": "6.911670E-06",
        "Coefficient E": NaN,
        "Coefficient F": NaN,
        "Coefficient G": NaN,
        "T range, from": "265.12 K",
        "T range, to": "604.30 K"
    },
    "Heat Capacity (Ideal Gas)": {
        "Equation Name": "Polynomial Equation",
        "Equation": "Cp = A + B*T + C*T^2 + D*T^3 + E*T^4  where Cp in kJ/kg-mol , T in K",
        "Coefficient A": "-7.619000E+01",
        "Coefficient B": "7.867000E-01",
        "Coefficient C": "-4.204000E-04",
        "Coefficient D": "7.561E-08",
        "Coefficient E": "0",
        "Coefficient F": NaN,
        "Coefficient G": NaN,
        "T range, from": NaN,
        "T range, to": NaN
    },
    "Heat Capacity (Liquid)": NaN,
    "Viscosity (Gas, Low P)": NaN,
    "Viscosity (Liquid)": NaN,
    "Themal Conductivity (Gas, Low P)": NaN,
    "Themal Conductivity (Liquid)": NaN,
    "Surface Tension": NaN,
    "Partial Molar Volume (VOLP)": "1.212200E-01 m^3/kg-mol",
    "Solubility Parameters (SOLP)": "1.722092E+04 (J/cm^3)^0.5",
    "SRK accentric factor (WSRK)": NaN,
    "COSTALD Characteristic Volume (VSTAR)": NaN,
    "Rackett parameter (ZRA)": NaN,
    "Aniline Point (ANP)": NaN,
    "H(formation,ideal gas)at 25 C": "-1.194000E+05 kJ/kg-mol",
    "G(formation,ideal gas) at 25 C": "6.305000E+04 kJ/kg-mol",
    "Heat of Combustion, Gross form (HCB1)": "4.597798E+06 kJ/kg-mol",
    "Heat of Combustion, Net form (HCB2)": "4.289856E+06 kJ/kg-mol",
    "Van der Waals Volume (VDWV)": NaN,
    "Van der Waals Area (VDWA)": NaN,
    "UNIQUAC Ri Parameter (RI)": 4.7208,
    "UNIQUAC Qi Parameter (QI)": 3.78,
    "Dipole Moment (DM)": NaN,
    "Radius of Gyration (GYRAD)": NaN,
    "Liquid Density (DENL)": "8.249515E-03 g-mol/cm^3",
    "Temperature of DENL (TDENL)": "2.930000E+02 K",
    "Heat of Vaporizaiton (HVAP)": NaN,
    "Temperature of HVAP (THVAP)": NaN,
    "Surface Tension (SRF)": "2.710000E+01 dyn/cm",
    "Temperature of SRF (TSRF)": "2.982000E+02 K",
    "Dielectric Constant (DIEL)": NaN,
    "Temperature of DIEL (TDIEL)": NaN,
    "Refractive Index (RFI)": "1.442400E+00",
    "Temperature of RFI (TRFI)": "2.981500E+02 K",
    "Lower Flammability Limit(FLL)": NaN,
    "Upper Flammability Limit(FLU)": NaN,
    "Flash Point (Open Cup Method)": NaN,
    "Flash Point (Closed Cup Method)": NaN,
    "Autoignition Temperature (AIGT)": NaN,
    "NFPA Rating (Health)": NaN,
    "NFPA Rating (Fire)": NaN,
    "NFPA Rating (Safety)": NaN,
    "Class": "Naphtenic Hydrocarbons",
    "Subclass": "Cycloalkanes",
    "SMILES": "C1CCCCCC1"
}