{
    "ID": "480",
    "Name": "N-PROPYLCYCLOPENTANE",
    "Synonyms": "PROPYLCYCLOPENTANE, 1-CYCLOPENTYLPROPANE",
    "CAS No.": "2040-96-2",
    "Formula": "C8H16",
    "Molecular Wt. (WT)": "1.12214E+02",
    "Normal Boiling Point Temp. (TB)": "4.04100E+02 K",
    "Freezing Point Temp. (TF)": "1.55800E+02 K",
    "Triple Point Temp. (TT)": NaN,
    "Triple Point Press. (PT)": NaN,
    "Critical Temperature. (TC)": "6.03000E+02 K",
    "Critical Pressure (PC)": "3.00000E+03 kPa",
    "Critical Volume (VC)": "4.25000E-01 m^3/kg-mol",
    "Critical Compressibility (ZC)": "2.54306E-01",
    "Accentric Factor (ACCF)": "3.35000E-01",
    "Vapor Pressure": {
        "Equation Name": "KDB Correlation Equation",
        "Equation": "ln(Pvp) = A*ln(T) + B/T + C + D*T^2 where Pvp in kPa, T in K",
        "Coefficient A": "-9.079674E+00",
        "Coefficient B": "-7.411327E+03",
        "Coefficient C": "7.666562E+01",
        "Coefficient D": "4.791965E-06",
        "Coefficient E": NaN,
        "Coefficient F": NaN,
        "Coefficient G": NaN,
        "T range, from": "155.81 K",
        "T range, to": "603.00 K"
    },
    "Heat Capacity (Ideal Gas)": {
        "Equation Name": "Polynomial Equation",
        "Equation": "Cp = A + B*T + C*T^2 + D*T^3 + E*T^4  where Cp in kJ/kg-mol , T in K",
        "Coefficient A": "-6.333728E+01",
        "Coefficient B": "8.743623E-01",
        "Coefficient C": "-5.442992E-04",
        "Coefficient D": "1.528605E-07",
        "Coefficient E": "-1.153128E-11",
        "Coefficient F": NaN,
        "Coefficient G": NaN,
        "T range, from": NaN,
        "T range, to": NaN
    },
    "Heat Capacity (Liquid)": NaN,
    "Viscosity (Gas, Low P)": NaN,
    "Viscosity (Liquid)": NaN,
    "Themal Conductivity (Gas, Low P)": NaN,
    "Themal Conductivity (Liquid)": NaN,
    "Surface Tension": NaN,
    "Partial Molar Volume (VOLP)": NaN,
    "Solubility Parameters (SOLP)": "1.638227E+04 (J/cm^3)^0.5",
    "SRK accentric factor (WSRK)": NaN,
    "COSTALD Characteristic Volume (VSTAR)": NaN,
    "Rackett parameter (ZRA)": NaN,
    "Aniline Point (ANP)": "3.176500E+02 K",
    "H(formation,ideal gas)at 25 C": "-1.482000E+05 kJ/kg-mol",
    "G(formation,ideal gas) at 25 C": "5.263000E+04 kJ/kg-mol",
    "Heat of Combustion, Gross form (HCB1)": "5.245648E+06 kJ/kg-mol",
    "Heat of Combustion, Net form (HCB2)": "4.893565E+06 kJ/kg-mol",
    "Van der Waals Volume (VDWV)": NaN,
    "Van der Waals Area (VDWA)": NaN,
    "UNIQUAC Ri Parameter (RI)": NaN,
    "UNIQUAC Qi Parameter (QI)": NaN,
    "Dipole Moment (DM)": NaN,
    "Radius of Gyration (GYRAD)": NaN,
    "Liquid Density (DENL)": "6.959891E-03 g-mol/cm^3",
    "Temperature of DENL (TDENL)": "2.890000E+02 K",
    "Heat of Vaporizaiton (HVAP)": "3.410800E+04 kJ/kg-mol",
    "Temperature of HVAP (THVAP)": "4.041000E+02 K",
    "Surface Tension (SRF)": "2.495000E+01 dyn/cm",
    "Temperature of SRF (TSRF)": "2.932000E+02 K",
    "Dielectric Constant (DIEL)": NaN,
    "Temperature of DIEL (TDIEL)": NaN,
    "Refractive Index (RFI)": "1.423890E+00",
    "Temperature of RFI (TRFI)": "2.981500E+02 K",
    "Lower Flammability Limit(FLL)": NaN,
    "Upper Flammability Limit(FLU)": NaN,
    "Flash Point (Open Cup Method)": NaN,
    "Flash Point (Closed Cup Method)": NaN,
    "Autoignition Temperature (AIGT)": NaN,
    "NFPA Rating (Health)": NaN,
    "NFPA Rating (Fire)": NaN,
    "NFPA Rating (Safety)": NaN,
    "Class": "Naphtenic Hydrocarbons",
    "Subclass": "Cycloalkanes",
    "SMILES": "CCCC1CCCC1"
}