{
    "ID": "495",
    "Name": "ETHYLCYCLOHEXANE",
    "Synonyms": NaN,
    "CAS No.": "1678-91-7",
    "Formula": "C8H16",
    "Molecular Wt. (WT)": "1.12214E+02",
    "Normal Boiling Point Temp. (TB)": "4.04900E+02 K",
    "Freezing Point Temp. (TF)": "1.61800E+02 K",
    "Triple Point Temp. (TT)": NaN,
    "Triple Point Press. (PT)": NaN,
    "Critical Temperature. (TC)": "6.09000E+02 K",
    "Critical Pressure (PC)": "3.00000E+03 kPa",
    "Critical Volume (VC)": "4.50000E-01 m^3/kg-mol",
    "Critical Compressibility (ZC)": "2.66612E-01",
    "Accentric Factor (ACCF)": "2.43000E-01",
    "Vapor Pressure": {
        "Equation Name": "KDB Correlation Equation",
        "Equation": "ln(Pvp) = A*ln(T) + B/T + C + D*T^2 where Pvp in kPa, T in K",
        "Coefficient A": "-8.454618E+00",
        "Coefficient B": "-7.173024E+03",
        "Coefficient C": "7.237042E+01",
        "Coefficient D": "4.403511E-06",
        "Coefficient E": NaN,
        "Coefficient F": NaN,
        "Coefficient G": NaN,
        "T range, from": "161.84 K",
        "T range, to": "609.15 K"
    },
    "Heat Capacity (Ideal Gas)": {
        "Equation Name": "Polynomial Equation",
        "Equation": "Cp = A + B*T + C*T^2 + D*T^3 + E*T^4  where Cp in kJ/kg-mol , T in K",
        "Coefficient A": "-4.576066E+01",
        "Coefficient B": "7.619619E-01",
        "Coefficient C": "-2.167022E-04",
        "Coefficient D": "-1.604282E-07",
        "Coefficient E": "8.500378E-11",
        "Coefficient F": NaN,
        "Coefficient G": NaN,
        "T range, from": NaN,
        "T range, to": NaN
    },
    "Heat Capacity (Liquid)": NaN,
    "Viscosity (Gas, Low P)": NaN,
    "Viscosity (Liquid)": {
        "Equation Name": "Andrade Equation",
        "Equation": "ln (VISL) = A + B/ T  where T in K and VISL in cP.",
        "Coefficient A": "-4.153",
        "Coefficient B": "1166",
        "Coefficient C": "0",
        "Coefficient D": "0",
        "Coefficient E": NaN,
        "Coefficient F": NaN,
        "Coefficient G": NaN,
        "T range, from": "248.15 K",
        "T range, to": "398.15 K"
    },
    "Themal Conductivity (Gas, Low P)": NaN,
    "Themal Conductivity (Liquid)": NaN,
    "Surface Tension": NaN,
    "Partial Molar Volume (VOLP)": NaN,
    "Solubility Parameters (SOLP)": "1.623909E+04 (J/cm^3)^0.5",
    "SRK accentric factor (WSRK)": "2.497000E-01",
    "COSTALD Characteristic Volume (VSTAR)": "4.227000E-01 m^3/kg-mol",
    "Rackett parameter (ZRA)": NaN,
    "Aniline Point (ANP)": "3.169500E+02 K",
    "H(formation,ideal gas)at 25 C": "-1.719000E+05 kJ/kg-mol",
    "G(formation,ideal gas) at 25 C": "3.927000E+04 kJ/kg-mol",
    "Heat of Combustion, Gross form (HCB1)": "5.222594E+06 kJ/kg-mol",
    "Heat of Combustion, Net form (HCB2)": "4.870511E+06 kJ/kg-mol",
    "Van der Waals Volume (VDWV)": NaN,
    "Van der Waals Area (VDWA)": NaN,
    "UNIQUAC Ri Parameter (RI)": NaN,
    "UNIQUAC Qi Parameter (QI)": NaN,
    "Dipole Moment (DM)": "0.000000E+00 debye",
    "Radius of Gyration (GYRAD)": NaN,
    "Liquid Density (DENL)": "7.022271E-03 g-mol/cm^3",
    "Temperature of DENL (TDENL)": "2.930000E+02 K",
    "Heat of Vaporizaiton (HVAP)": "3.430900E+04 kJ/kg-mol",
    "Temperature of HVAP (THVAP)": "4.049000E+02 K",
    "Surface Tension (SRF)": "2.567000E+01 dyn/cm",
    "Temperature of SRF (TSRF)": "2.932000E+02 K",
    "Dielectric Constant (DIEL)": NaN,
    "Temperature of DIEL (TDIEL)": NaN,
    "Refractive Index (RFI)": "1.430730E+00",
    "Temperature of RFI (TRFI)": "2.981500E+02 K",
    "Lower Flammability Limit(FLL)": NaN,
    "Upper Flammability Limit(FLU)": NaN,
    "Flash Point (Open Cup Method)": NaN,
    "Flash Point (Closed Cup Method)": NaN,
    "Autoignition Temperature (AIGT)": NaN,
    "NFPA Rating (Health)": 1.0,
    "NFPA Rating (Fire)": 3.0,
    "NFPA Rating (Safety)": NaN,
    "Class": "Naphtenic Hydrocarbons",
    "Subclass": "Cycloalkanes",
    "SMILES": "CCC1CCCCC1"
}