{
    "ID": "496",
    "Name": "1,1-DIMETHYLCYCLOHEXANE",
    "Synonyms": "GEM-DIMETHYLCYCLOHEXANE",
    "CAS No.": "590-66-9",
    "Formula": "C8H16",
    "Molecular Wt. (WT)": "1.12214E+02",
    "Normal Boiling Point Temp. (TB)": "3.92700E+02 K",
    "Freezing Point Temp. (TF)": "2.39700E+02 K",
    "Triple Point Temp. (TT)": NaN,
    "Triple Point Press. (PT)": NaN,
    "Critical Temperature. (TC)": "5.91000E+02 K",
    "Critical Pressure (PC)": "2.96000E+03 kPa",
    "Critical Volume (VC)": "4.16000E-01 m^3/kg-mol",
    "Critical Compressibility (ZC)": "2.50588E-01",
    "Accentric Factor (ACCF)": "2.38000E-01",
    "Vapor Pressure": {
        "Equation Name": "KDB Correlation Equation",
        "Equation": "ln(Pvp) = A*ln(T) + B/T + C + D*T^2 where Pvp in kPa, T in K",
        "Coefficient A": "-8.829861E+00",
        "Coefficient B": "-6.919085E+03",
        "Coefficient C": "7.413381E+01",
        "Coefficient D": "5.473518E-06",
        "Coefficient E": NaN,
        "Coefficient F": NaN,
        "Coefficient G": NaN,
        "T range, from": "239.66 K",
        "T range, to": "591.15 K"
    },
    "Heat Capacity (Ideal Gas)": {
        "Equation Name": "Polynomial Equation",
        "Equation": "Cp = A + B*T + C*T^2 + D*T^3 + E*T^4  where Cp in kJ/kg-mol , T in K",
        "Coefficient A": "-2.957469E+01",
        "Coefficient B": "6.159973E-01",
        "Coefficient C": "1.286861E-04",
        "Coefficient D": "-4.623724E-07",
        "Coefficient E": "1.753422E-10",
        "Coefficient F": NaN,
        "Coefficient G": NaN,
        "T range, from": NaN,
        "T range, to": NaN
    },
    "Heat Capacity (Liquid)": NaN,
    "Viscosity (Gas, Low P)": NaN,
    "Viscosity (Liquid)": NaN,
    "Themal Conductivity (Gas, Low P)": NaN,
    "Themal Conductivity (Liquid)": NaN,
    "Surface Tension": NaN,
    "Partial Molar Volume (VOLP)": NaN,
    "Solubility Parameters (SOLP)": "1.564590E+04 (J/cm^3)^0.5",
    "SRK accentric factor (WSRK)": "2.351000E-01",
    "COSTALD Characteristic Volume (VSTAR)": "4.216000E-01 m^3/kg-mol",
    "Rackett parameter (ZRA)": NaN,
    "Aniline Point (ANP)": "3.185500E+02 K",
    "H(formation,ideal gas)at 25 C": "-1.811000E+05 kJ/kg-mol",
    "G(formation,ideal gas) at 25 C": "3.525000E+04 kJ/kg-mol",
    "Heat of Combustion, Gross form (HCB1)": "5.215984E+06 kJ/kg-mol",
    "Heat of Combustion, Net form (HCB2)": "4.863900E+06 kJ/kg-mol",
    "Van der Waals Volume (VDWV)": NaN,
    "Van der Waals Area (VDWA)": NaN,
    "UNIQUAC Ri Parameter (RI)": NaN,
    "UNIQUAC Qi Parameter (QI)": NaN,
    "Dipole Moment (DM)": NaN,
    "Radius of Gyration (GYRAD)": NaN,
    "Liquid Density (DENL)": "6.995537E-03 g-mol/cm^3",
    "Temperature of DENL (TDENL)": "2.890000E+02 K",
    "Heat of Vaporizaiton (HVAP)": "3.259300E+04 kJ/kg-mol",
    "Temperature of HVAP (THVAP)": "3.927000E+02 K",
    "Surface Tension (SRF)": "2.413000E+01 dyn/cm",
    "Temperature of SRF (TSRF)": "2.932000E+02 K",
    "Dielectric Constant (DIEL)": NaN,
    "Temperature of DIEL (TDIEL)": NaN,
    "Refractive Index (RFI)": "1.426620E+00",
    "Temperature of RFI (TRFI)": "2.981500E+02 K",
    "Lower Flammability Limit(FLL)": NaN,
    "Upper Flammability Limit(FLU)": NaN,
    "Flash Point (Open Cup Method)": NaN,
    "Flash Point (Closed Cup Method)": NaN,
    "Autoignition Temperature (AIGT)": NaN,
    "NFPA Rating (Health)": NaN,
    "NFPA Rating (Fire)": NaN,
    "NFPA Rating (Safety)": NaN,
    "Class": "Naphtenic Hydrocarbons",
    "Subclass": "Cycloalkanes",
    "SMILES": "CC1(CCCCC1)C"
}