{
    "ID": "497",
    "Name": "CIS-1,2-DIMETHYLCYCLOHEXANE",
    "Synonyms": "1,CIS-2-DIMETHYLCYCLOHEXANE",
    "CAS No.": "2207-01-4",
    "Formula": "C8H16",
    "Molecular Wt. (WT)": "1.12214E+02",
    "Normal Boiling Point Temp. (TB)": "4.02900E+02 K",
    "Freezing Point Temp. (TF)": "2.23100E+02 K",
    "Triple Point Temp. (TT)": NaN,
    "Triple Point Press. (PT)": NaN,
    "Critical Temperature. (TC)": "6.06000E+02 K",
    "Critical Pressure (PC)": "2.94000E+03 kPa",
    "Critical Volume (VC)": "4.71300E-01 m^3/kg-mol",
    "Critical Compressibility (ZC)": "2.75002E-01",
    "Accentric Factor (ACCF)": "2.36000E-01",
    "Vapor Pressure": {
        "Equation Name": "KDB Correlation Equation",
        "Equation": "ln(Pvp) = A*ln(T) + B/T + C + D*T^2 where Pvp in kPa, T in K",
        "Coefficient A": "-8.664917E+00",
        "Coefficient B": "-7.126489E+03",
        "Coefficient C": "7.350501E+01",
        "Coefficient D": "4.769858E-06",
        "Coefficient E": NaN,
        "Coefficient F": NaN,
        "Coefficient G": NaN,
        "T range, from": "223.16 K",
        "T range, to": "606.15 K"
    },
    "Heat Capacity (Ideal Gas)": {
        "Equation Name": "Polynomial Equation",
        "Equation": "Cp = A + B*T + C*T^2 + D*T^3 + E*T^4  where Cp in kJ/kg-mol , T in K",
        "Coefficient A": "-8.683306E+01",
        "Coefficient B": "9.792547E-01",
        "Coefficient C": "-6.349914E-04",
        "Coefficient D": "1.810775E-07",
        "Coefficient E": "-1.389612E-11",
        "Coefficient F": NaN,
        "Coefficient G": NaN,
        "T range, from": NaN,
        "T range, to": NaN
    },
    "Heat Capacity (Liquid)": NaN,
    "Viscosity (Gas, Low P)": NaN,
    "Viscosity (Liquid)": NaN,
    "Themal Conductivity (Gas, Low P)": NaN,
    "Themal Conductivity (Liquid)": NaN,
    "Surface Tension": NaN,
    "Partial Molar Volume (VOLP)": NaN,
    "Solubility Parameters (SOLP)": "1.621863E+04 (J/cm^3)^0.5",
    "SRK accentric factor (WSRK)": NaN,
    "COSTALD Characteristic Volume (VSTAR)": NaN,
    "Rackett parameter (ZRA)": NaN,
    "Aniline Point (ANP)": "3.148500E+02 K",
    "H(formation,ideal gas)at 25 C": "-1.723000E+05 kJ/kg-mol",
    "G(formation,ideal gas) at 25 C": "4.124000E+04 kJ/kg-mol",
    "Heat of Combustion, Gross form (HCB1)": "5.222930E+06 kJ/kg-mol",
    "Heat of Combustion, Net form (HCB2)": "4.870846E+06 kJ/kg-mol",
    "Van der Waals Volume (VDWV)": NaN,
    "Van der Waals Area (VDWA)": NaN,
    "UNIQUAC Ri Parameter (RI)": NaN,
    "UNIQUAC Qi Parameter (QI)": NaN,
    "Dipole Moment (DM)": NaN,
    "Radius of Gyration (GYRAD)": NaN,
    "Liquid Density (DENL)": "7.093564E-03 g-mol/cm^3",
    "Temperature of DENL (TDENL)": "2.930000E+02 K",
    "Heat of Vaporizaiton (HVAP)": "3.363900E+04 kJ/kg-mol",
    "Temperature of HVAP (THVAP)": "4.029000E+02 K",
    "Surface Tension (SRF)": "2.573000E+01 dyn/cm",
    "Temperature of SRF (TSRF)": "2.932000E+02 K",
    "Dielectric Constant (DIEL)": NaN,
    "Temperature of DIEL (TDIEL)": NaN,
    "Refractive Index (RFI)": "1.433580E+00",
    "Temperature of RFI (TRFI)": "2.981500E+02 K",
    "Lower Flammability Limit(FLL)": NaN,
    "Upper Flammability Limit(FLU)": NaN,
    "Flash Point (Open Cup Method)": NaN,
    "Flash Point (Closed Cup Method)": NaN,
    "Autoignition Temperature (AIGT)": NaN,
    "NFPA Rating (Health)": NaN,
    "NFPA Rating (Fire)": NaN,
    "NFPA Rating (Safety)": NaN,
    "Class": "Naphtenic Hydrocarbons",
    "Subclass": "Cycloalkanes",
    "SMILES": "C[C@@H]1CCCC[C@@H]1C"
}