{
    "ID": "499",
    "Name": "CIS-1,3-DIMETHYLCYCLOHEXANE",
    "Synonyms": "1,CIS-3-DIMETHYLCYCLOHEXANE",
    "CAS No.": "638-04-0",
    "Formula": "C8H16",
    "Molecular Wt. (WT)": "1.12214E+02",
    "Normal Boiling Point Temp. (TB)": "3.93300E+02 K",
    "Freezing Point Temp. (TF)": "1.97600E+02 K",
    "Triple Point Temp. (TT)": NaN,
    "Triple Point Press. (PT)": NaN,
    "Critical Temperature. (TC)": "5.91000E+02 K",
    "Critical Pressure (PC)": "2.90000E+03 kPa",
    "Critical Volume (VC)": "4.48900E-01 m^3/kg-mol",
    "Critical Compressibility (ZC)": "2.64925E-01",
    "Accentric Factor (ACCF)": "2.24000E-01",
    "Vapor Pressure": {
        "Equation Name": "KDB Correlation Equation",
        "Equation": "ln(Pvp) = A*ln(T) + B/T + C + D*T^2 where Pvp in kPa, T in K",
        "Coefficient A": "-8.587646E+00",
        "Coefficient B": "-6.922779E+03",
        "Coefficient C": "7.275512E+01",
        "Coefficient D": "5.002690E-06",
        "Coefficient E": NaN,
        "Coefficient F": NaN,
        "Coefficient G": NaN,
        "T range, from": "197.58 K",
        "T range, to": "591.15 K"
    },
    "Heat Capacity (Ideal Gas)": {
        "Equation Name": "Polynomial Equation",
        "Equation": "Cp = A + B*T + C*T^2 + D*T^3 + E*T^4  where Cp in kJ/kg-mol , T in K",
        "Coefficient A": "-7.661794E+01",
        "Coefficient B": "9.373049E-01",
        "Coefficient C": "-5.771283E-04",
        "Coefficient D": "1.545296E-07",
        "Coefficient E": "-1.112933E-11",
        "Coefficient F": NaN,
        "Coefficient G": NaN,
        "T range, from": NaN,
        "T range, to": NaN
    },
    "Heat Capacity (Liquid)": NaN,
    "Viscosity (Gas, Low P)": NaN,
    "Viscosity (Liquid)": NaN,
    "Themal Conductivity (Gas, Low P)": NaN,
    "Themal Conductivity (Liquid)": NaN,
    "Surface Tension": NaN,
    "Partial Molar Volume (VOLP)": NaN,
    "Solubility Parameters (SOLP)": "1.558453E+04 (J/cm^3)^0.5",
    "SRK accentric factor (WSRK)": NaN,
    "COSTALD Characteristic Volume (VSTAR)": NaN,
    "Rackett parameter (ZRA)": NaN,
    "Aniline Point (ANP)": "3.248500E+02 K",
    "H(formation,ideal gas)at 25 C": "-1.849000E+05 kJ/kg-mol",
    "G(formation,ideal gas) at 25 C": "2.985000E+04 kJ/kg-mol",
    "Heat of Combustion, Gross form (HCB1)": "5.211800E+06 kJ/kg-mol",
    "Heat of Combustion, Net form (HCB2)": "4.859716E+06 kJ/kg-mol",
    "Van der Waals Volume (VDWV)": NaN,
    "Van der Waals Area (VDWA)": NaN,
    "UNIQUAC Ri Parameter (RI)": NaN,
    "UNIQUAC Qi Parameter (QI)": NaN,
    "Dipole Moment (DM)": NaN,
    "Radius of Gyration (GYRAD)": NaN,
    "Liquid Density (DENL)": "6.826218E-03 g-mol/cm^3",
    "Temperature of DENL (TDENL)": "2.930000E+02 K",
    "Heat of Vaporizaiton (HVAP)": "3.280300E+04 kJ/kg-mol",
    "Temperature of HVAP (THVAP)": "3.933000E+02 K",
    "Surface Tension (SRF)": "2.263000E+01 dyn/cm",
    "Temperature of SRF (TSRF)": "2.932000E+02 K",
    "Dielectric Constant (DIEL)": NaN,
    "Temperature of DIEL (TDIEL)": NaN,
    "Refractive Index (RFI)": "1.420630E+00",
    "Temperature of RFI (TRFI)": "2.981500E+02 K",
    "Lower Flammability Limit(FLL)": NaN,
    "Upper Flammability Limit(FLU)": NaN,
    "Flash Point (Open Cup Method)": NaN,
    "Flash Point (Closed Cup Method)": NaN,
    "Autoignition Temperature (AIGT)": NaN,
    "NFPA Rating (Health)": NaN,
    "NFPA Rating (Fire)": NaN,
    "NFPA Rating (Safety)": NaN,
    "Class": "Naphtenic Hydrocarbons",
    "Subclass": "Cycloalkanes",
    "SMILES": "C[C@@H]1CCC[C@@H](C1)C"
}