{
    "ID": "5",
    "Name": "N-PENTANE",
    "Synonyms": "PENTYL HYDRIDE, PENTANE",
    "CAS No.": "109-66-0",
    "Formula": "C5H12",
    "Molecular Wt. (WT)": "7.21498E+01",
    "Normal Boiling Point Temp. (TB)": "3.09210E+02 K",
    "Freezing Point Temp. (TF)": "1.43400E+02 K",
    "Triple Point Temp. (TT)": "1.43430E+02 K",
    "Triple Point Press. (PT)": NaN,
    "Critical Temperature. (TC)": "4.69700E+02 K",
    "Critical Pressure (PC)": "3.37000E+03 kPa",
    "Critical Volume (VC)": "3.11000E-01 m^3/kg-mol",
    "Critical Compressibility (ZC)": "2.68369E-01",
    "Accentric Factor (ACCF)": "2.51000E-01",
    "Vapor Pressure": {
        "Equation Name": "KDB Correlation Equation",
        "Equation": "ln(Pvp) = A*ln(T) + B/T + C + D*T^2 where Pvp in kPa, T in K",
        "Coefficient A": "-1.041840E+01",
        "Coefficient B": "-5.778024E+03",
        "Coefficient C": "8.192460E+01",
        "Coefficient D": "1.178208E-05",
        "Coefficient E": NaN,
        "Coefficient F": NaN,
        "Coefficient G": NaN,
        "T range, from": "143.42 K",
        "T range, to": "469.65 K"
    },
    "Heat Capacity (Ideal Gas)": {
        "Equation Name": "Polynomial Equation",
        "Equation": "Cp = A + B*T + C*T^2 + D*T^3 + E*T^4  where Cp in kJ/kg-mol , T in K",
        "Coefficient A": "3.378045E+01",
        "Coefficient B": "2.485010E-01",
        "Coefficient C": "2.534802E-04",
        "Coefficient D": "-3.838002E-07",
        "Coefficient E": "1.297666E-10",
        "Coefficient F": NaN,
        "Coefficient G": NaN,
        "T range, from": NaN,
        "T range, to": NaN
    },
    "Heat Capacity (Liquid)": NaN,
    "Viscosity (Gas, Low P)": NaN,
    "Viscosity (Liquid)": {
        "Equation Name": "Andrade Equation",
        "Equation": "ln (VISL) = A + B/ T  where T in K and VISL in cP.",
        "Coefficient A": "-3.958",
        "Coefficient B": "722.2",
        "Coefficient C": "0",
        "Coefficient D": "0",
        "Coefficient E": NaN,
        "Coefficient F": NaN,
        "Coefficient G": NaN,
        "T range, from": "143.15 K",
        "T range, to": "313.15 K"
    },
    "Themal Conductivity (Gas, Low P)": NaN,
    "Themal Conductivity (Liquid)": NaN,
    "Surface Tension": NaN,
    "Partial Molar Volume (VOLP)": "1.161100E-01 m^3/kg-mol",
    "Solubility Parameters (SOLP)": "1.435929E+04 (J/cm^3)^0.5",
    "SRK accentric factor (WSRK)": "2.522000E-01",
    "COSTALD Characteristic Volume (VSTAR)": "3.113000E-01 m^3/kg-mol",
    "Rackett parameter (ZRA)": "2.684000E-01",
    "Aniline Point (ANP)": "3.438500E+02 K",
    "H(formation,ideal gas)at 25 C": "-1.465000E+05 kJ/kg-mol",
    "G(formation,ideal gas) at 25 C": "-8.370000E+03 kJ/kg-mol",
    "Heat of Combustion, Gross form (HCB1)": "3.509414E+06 kJ/kg-mol",
    "Heat of Combustion, Net form (HCB2)": "3.245361E+06 kJ/kg-mol",
    "Van der Waals Volume (VDWV)": NaN,
    "Van der Waals Area (VDWA)": NaN,
    "UNIQUAC Ri Parameter (RI)": "3.825400E+00",
    "UNIQUAC Qi Parameter (QI)": "3.316000E+00",
    "Dipole Moment (DM)": "0.000000E+00 debye",
    "Radius of Gyration (GYRAD)": "3.385000E+00",
    "Liquid Density (DENL)": "8.676392E-03 g-mol/cm^3",
    "Temperature of DENL (TDENL)": "2.930000E+02 K",
    "Heat of Vaporizaiton (HVAP)": "2.577300E+04 kJ/kg-mol",
    "Temperature of HVAP (THVAP)": "3.092000E+02 K",
    "Surface Tension (SRF)": "1.605000E+01 dyn/cm",
    "Temperature of SRF (TSRF)": "2.932000E+02 K",
    "Dielectric Constant (DIEL)": NaN,
    "Temperature of DIEL (TDIEL)": NaN,
    "Refractive Index (RFI)": "1.354720E+00",
    "Temperature of RFI (TRFI)": "2.981500E+02 K",
    "Lower Flammability Limit(FLL)": "1.400000E+00 % in Air",
    "Upper Flammability Limit(FLU)": "8.300000E+00 % in Air",
    "Flash Point (Open Cup Method)": "2.237056E+02 K",
    "Flash Point (Closed Cup Method)": NaN,
    "Autoignition Temperature (AIGT)": "5.575945E+02 K",
    "NFPA Rating (Health)": "1",
    "NFPA Rating (Fire)": "4",
    "NFPA Rating (Safety)": NaN,
    "Class": "Paraffinic Hydrocarbons",
    "Subclass": "n-Alkanes",
    "SMILES": "CCCCC"
}