{
    "ID": "500",
    "Name": "TRANS-1,3-DIMETHYLCYCLOHEXANE",
    "Synonyms": "1,TRANS-3-DIMETHYLCYCLOHEXANE",
    "CAS No.": "2207-03-6",
    "Formula": "C8H16",
    "Molecular Wt. (WT)": "1.12214E+02",
    "Normal Boiling Point Temp. (TB)": "3.97600E+02 K",
    "Freezing Point Temp. (TF)": "1.83000E+02 K",
    "Triple Point Temp. (TT)": NaN,
    "Triple Point Press. (PT)": NaN,
    "Critical Temperature. (TC)": "5.98000E+02 K",
    "Critical Pressure (PC)": "2.97000E+03 kPa",
    "Critical Volume (VC)": "4.15500E-01 m^3/kg-mol",
    "Critical Compressibility (ZC)": "2.48193E-01",
    "Accentric Factor (ACCF)": "1.89000E-01",
    "Vapor Pressure": {
        "Equation Name": "KDB Correlation Equation",
        "Equation": "ln(Pvp) = A*ln(T) + B/T + C + D*T^2 where Pvp in kPa, T in K",
        "Coefficient A": "-8.490352E+00",
        "Coefficient B": "-7.024675E+03",
        "Coefficient C": "7.238281E+01",
        "Coefficient D": "4.567123E-06",
        "Coefficient E": NaN,
        "Coefficient F": NaN,
        "Coefficient G": NaN,
        "T range, from": "183.05 K",
        "T range, to": "598.00 K"
    },
    "Heat Capacity (Ideal Gas)": {
        "Equation Name": "Polynomial Equation",
        "Equation": "Cp = A + B*T + C*T^2 + D*T^3 + E*T^4  where Cp in kJ/kg-mol , T in K",
        "Coefficient A": "-6.709812E+01",
        "Coefficient B": "8.843681E-01",
        "Coefficient C": "-4.800566E-04",
        "Coefficient D": "7.298776E-08",
        "Coefficient E": "1.326903E-11",
        "Coefficient F": NaN,
        "Coefficient G": NaN,
        "T range, from": NaN,
        "T range, to": NaN
    },
    "Heat Capacity (Liquid)": NaN,
    "Viscosity (Gas, Low P)": NaN,
    "Viscosity (Liquid)": NaN,
    "Themal Conductivity (Gas, Low P)": NaN,
    "Themal Conductivity (Liquid)": NaN,
    "Surface Tension": NaN,
    "Partial Molar Volume (VOLP)": NaN,
    "Solubility Parameters (SOLP)": "1.597317E+04 (J/cm^3)^0.5",
    "SRK accentric factor (WSRK)": "2.374000E-01",
    "COSTALD Characteristic Volume (VSTAR)": "4.213000E-01 m^3/kg-mol",
    "Rackett parameter (ZRA)": NaN,
    "Aniline Point (ANP)": "3.194500E+02 K",
    "H(formation,ideal gas)at 25 C": "-1.767000E+05 kJ/kg-mol",
    "G(formation,ideal gas) at 25 C": "3.634000E+04 kJ/kg-mol",
    "Heat of Combustion, Gross form (HCB1)": "5.219038E+06 kJ/kg-mol",
    "Heat of Combustion, Net form (HCB2)": "4.866954E+06 kJ/kg-mol",
    "Van der Waals Volume (VDWV)": NaN,
    "Van der Waals Area (VDWA)": NaN,
    "UNIQUAC Ri Parameter (RI)": NaN,
    "UNIQUAC Qi Parameter (QI)": NaN,
    "Dipole Moment (DM)": NaN,
    "Radius of Gyration (GYRAD)": NaN,
    "Liquid Density (DENL)": "6.995537E-03 g-mol/cm^3",
    "Temperature of DENL (TDENL)": "2.930000E+02 K",
    "Heat of Vaporizaiton (HVAP)": "3.384900E+04 kJ/kg-mol",
    "Temperature of HVAP (THVAP)": "3.976000E+02 K",
    "Surface Tension (SRF)": "2.416000E+01 dyn/cm",
    "Temperature of SRF (TSRF)": "2.982000E+02 K",
    "Dielectric Constant (DIEL)": NaN,
    "Temperature of DIEL (TDIEL)": NaN,
    "Refractive Index (RFI)": "1.428430E+00",
    "Temperature of RFI (TRFI)": "2.981500E+02 K",
    "Lower Flammability Limit(FLL)": NaN,
    "Upper Flammability Limit(FLU)": NaN,
    "Flash Point (Open Cup Method)": NaN,
    "Flash Point (Closed Cup Method)": NaN,
    "Autoignition Temperature (AIGT)": NaN,
    "NFPA Rating (Health)": NaN,
    "NFPA Rating (Fire)": NaN,
    "NFPA Rating (Safety)": NaN,
    "Class": "Naphtenic Hydrocarbons",
    "Subclass": "Cycloalkanes",
    "SMILES": "C[C@@H]1CCC[C@H](C1)C"
}