{
    "ID": "51",
    "Name": "2,2-DIMETHYLHEXANE",
    "Synonyms": NaN,
    "CAS No.": "590-73-8",
    "Formula": "C8H18",
    "Molecular Wt. (WT)": "1.14230E+02",
    "Normal Boiling Point Temp. (TB)": "3.80010E+02 K",
    "Freezing Point Temp. (TF)": "1.51970E+02 K",
    "Triple Point Temp. (TT)": NaN,
    "Triple Point Press. (PT)": NaN,
    "Critical Temperature. (TC)": "5.49800E+02 K",
    "Critical Pressure (PC)": "2.53000E+03 kPa",
    "Critical Volume (VC)": "4.78000E-01 m^3/kg-mol",
    "Critical Compressibility (ZC)": "2.64550E-01",
    "Accentric Factor (ACCF)": "3.38000E-01",
    "Vapor Pressure": {
        "Equation Name": "KDB Correlation Equation",
        "Equation": "ln(Pvp) = A*ln(T) + B/T + C + D*T^2 where Pvp in kPa, T in K",
        "Coefficient A": "-1.086221E+01",
        "Coefficient B": "-7.333073E+03",
        "Coefficient C": "8.728417E+01",
        "Coefficient D": "8.007323E-06",
        "Coefficient E": NaN,
        "Coefficient F": NaN,
        "Coefficient G": NaN,
        "T range, from": "151.97 K",
        "T range, to": "549.80 K"
    },
    "Heat Capacity (Ideal Gas)": {
        "Equation Name": "Polynomial Equation",
        "Equation": "Cp = A + B*T + C*T^2 + D*T^3 + E*T^4  where Cp in kJ/kg-mol , T in K",
        "Coefficient A": "1.571536E+00",
        "Coefficient B": "6.899827E-01",
        "Coefficient C": "-1.579922E-04",
        "Coefficient D": "-1.665199E-07",
        "Coefficient E": "8.250936E-11",
        "Coefficient F": NaN,
        "Coefficient G": NaN,
        "T range, from": NaN,
        "T range, to": NaN
    },
    "Heat Capacity (Liquid)": NaN,
    "Viscosity (Gas, Low P)": NaN,
    "Viscosity (Liquid)": NaN,
    "Themal Conductivity (Gas, Low P)": NaN,
    "Themal Conductivity (Liquid)": NaN,
    "Surface Tension": NaN,
    "Partial Molar Volume (VOLP)": NaN,
    "Solubility Parameters (SOLP)": "1.452088E+04 (J/cm^3)^0.5",
    "SRK accentric factor (WSRK)": "3.374000E-01",
    "COSTALD Characteristic Volume (VSTAR)": "4.829000E-01 m^3/kg-mol",
    "Rackett parameter (ZRA)": NaN,
    "Aniline Point (ANP)": "3.511500E+02 K",
    "H(formation,ideal gas)at 25 C": "-2.249000E+05 kJ/kg-mol",
    "G(formation,ideal gas) at 25 C": "1.072000E+04 kJ/kg-mol",
    "Heat of Combustion, Gross form (HCB1)": "5.458614E+06 kJ/kg-mol",
    "Heat of Combustion, Net form (HCB2)": "5.062473E+06 kJ/kg-mol",
    "Van der Waals Volume (VDWV)": NaN,
    "Van der Waals Area (VDWA)": NaN,
    "UNIQUAC Ri Parameter (RI)": NaN,
    "UNIQUAC Qi Parameter (QI)": NaN,
    "Dipole Moment (DM)": NaN,
    "Radius of Gyration (GYRAD)": NaN,
    "Liquid Density (DENL)": "6.084205E-03 g-mol/cm^3",
    "Temperature of DENL (TDENL)": "2.930000E+02 K",
    "Heat of Vaporizaiton (HVAP)": "3.225900E+04 kJ/kg-mol",
    "Temperature of HVAP (THVAP)": "3.800000E+02 K",
    "Surface Tension (SRF)": "1.917000E+01 dyn/cm",
    "Temperature of SRF (TSRF)": "2.982000E+02 K",
    "Dielectric Constant (DIEL)": NaN,
    "Temperature of DIEL (TDIEL)": NaN,
    "Refractive Index (RFI)": "1.391040E+00",
    "Temperature of RFI (TRFI)": "2.981500E+02 K",
    "Lower Flammability Limit(FLL)": NaN,
    "Upper Flammability Limit(FLU)": NaN,
    "Flash Point (Open Cup Method)": NaN,
    "Flash Point (Closed Cup Method)": NaN,
    "Autoignition Temperature (AIGT)": NaN,
    "NFPA Rating (Health)": NaN,
    "NFPA Rating (Fire)": NaN,
    "NFPA Rating (Safety)": NaN,
    "Class": "Paraffinic Hydrocarbons",
    "Subclass": "Branched Alkanes",
    "SMILES": "CCCCC(C)(C)C"
}