{
    "ID": "559",
    "Name": "N-PROPYLCYCLOHEXANE",
    "Synonyms": "PROPYLCYCLOHEXANE",
    "CAS No.": "1678-92-8",
    "Formula": "C9H18",
    "Molecular Wt. (WT)": "1.26241E+02",
    "Normal Boiling Point Temp. (TB)": "4.29900E+02 K",
    "Freezing Point Temp. (TF)": "1.78700E+02 K",
    "Triple Point Temp. (TT)": NaN,
    "Triple Point Press. (PT)": NaN,
    "Critical Temperature. (TC)": "6.39000E+02 K",
    "Critical Pressure (PC)": "2.80000E+03 kPa",
    "Critical Volume (VC)": "4.72500E-01 m^3/kg-mol",
    "Critical Compressibility (ZC)": "2.49013E-01",
    "Accentric Factor (ACCF)": "2.58000E-01",
    "Vapor Pressure": {
        "Equation Name": "KDB Correlation Equation",
        "Equation": "ln(Pvp) = A*ln(T) + B/T + C + D*T^2 where Pvp in kPa, T in K",
        "Coefficient A": "-8.909355E+00",
        "Coefficient B": "-7.870477E+03",
        "Coefficient C": "7.624084E+01",
        "Coefficient D": "3.809785E-06",
        "Coefficient E": NaN,
        "Coefficient F": NaN,
        "Coefficient G": NaN,
        "T range, from": "178.28 K",
        "T range, to": "639.15 K"
    },
    "Heat Capacity (Ideal Gas)": {
        "Equation Name": "Polynomial Equation",
        "Equation": "Cp = A + B*T + C*T^2 + D*T^3 + E*T^4  where Cp in kJ/kg-mol , T in K",
        "Coefficient A": "-7.383264E+01",
        "Coefficient B": "1.037195E+00",
        "Coefficient C": "-6.404896E-04",
        "Coefficient D": "1.503231E-07",
        "Coefficient E": "1.682826E-12",
        "Coefficient F": NaN,
        "Coefficient G": NaN,
        "T range, from": NaN,
        "T range, to": NaN
    },
    "Heat Capacity (Liquid)": NaN,
    "Viscosity (Gas, Low P)": NaN,
    "Viscosity (Liquid)": {
        "Equation Name": "Andrade Equation",
        "Equation": "ln (VISL) = A + B/ T  where T in K and VISL in cP.",
        "Coefficient A": "-4.301",
        "Coefficient B": "1264",
        "Coefficient C": "0",
        "Coefficient D": "0",
        "Coefficient E": NaN,
        "Coefficient F": NaN,
        "Coefficient G": NaN,
        "T range, from": "248.15 K",
        "T range, to": "398.15 K"
    },
    "Themal Conductivity (Gas, Low P)": NaN,
    "Themal Conductivity (Liquid)": NaN,
    "Surface Tension": NaN,
    "Partial Molar Volume (VOLP)": NaN,
    "Solubility Parameters (SOLP)": NaN,
    "SRK accentric factor (WSRK)": "2.654000E-01",
    "COSTALD Characteristic Volume (VSTAR)": "4.812000E-01 m^3/kg-mol",
    "Rackett parameter (ZRA)": NaN,
    "Aniline Point (ANP)": "3.229500E+02 K",
    "H(formation,ideal gas)at 25 C": "-1.934000E+05 kJ/kg-mol",
    "G(formation,ideal gas) at 25 C": "4.735000E+04 kJ/kg-mol",
    "Heat of Combustion, Gross form (HCB1)": "5.875759E+06 kJ/kg-mol",
    "Heat of Combustion, Net form (HCB2)": "5.479660E+06 kJ/kg-mol",
    "Van der Waals Volume (VDWV)": NaN,
    "Van der Waals Area (VDWA)": NaN,
    "UNIQUAC Ri Parameter (RI)": NaN,
    "UNIQUAC Qi Parameter (QI)": NaN,
    "Dipole Moment (DM)": NaN,
    "Radius of Gyration (GYRAD)": NaN,
    "Liquid Density (DENL)": "6.281625E-03 g-mol/cm^3",
    "Temperature of DENL (TDENL)": "2.930000E+02 K",
    "Heat of Vaporizaiton (HVAP)": "3.606600E+04 kJ/kg-mol",
    "Temperature of HVAP (THVAP)": "4.299000E+02 K",
    "Surface Tension (SRF)": "2.608000E+01 dyn/cm",
    "Temperature of SRF (TSRF)": "2.982000E+02 K",
    "Dielectric Constant (DIEL)": NaN,
    "Temperature of DIEL (TDIEL)": NaN,
    "Refractive Index (RFI)": "1.434780E+00",
    "Temperature of RFI (TRFI)": "2.981500E+02 K",
    "Lower Flammability Limit(FLL)": NaN,
    "Upper Flammability Limit(FLU)": NaN,
    "Flash Point (Open Cup Method)": NaN,
    "Flash Point (Closed Cup Method)": NaN,
    "Autoignition Temperature (AIGT)": NaN,
    "NFPA Rating (Health)": NaN,
    "NFPA Rating (Fire)": NaN,
    "NFPA Rating (Safety)": NaN,
    "Class": "Naphtenic Hydrocarbons",
    "Subclass": "Cycloalkanes",
    "SMILES": "CCCC1CCCCC1"
}