{
    "ID": "57",
    "Name": "2-METHYL-3-ETHYLPENTANE",
    "Synonyms": "3-ETHYL-2-METHYLPENTANE",
    "CAS No.": "609-26-7",
    "Formula": "C8H18",
    "Molecular Wt. (WT)": "1.14230E+02",
    "Normal Boiling Point Temp. (TB)": "3.88810E+02 K",
    "Freezing Point Temp. (TF)": "1.58200E+02 K",
    "Triple Point Temp. (TT)": NaN,
    "Triple Point Press. (PT)": NaN,
    "Critical Temperature. (TC)": "5.67100E+02 K",
    "Critical Pressure (PC)": "2.70000E+03 kPa",
    "Critical Volume (VC)": "4.42000E-01 m^3/kg-mol",
    "Critical Compressibility (ZC)": "2.53099E-01",
    "Accentric Factor (ACCF)": "3.30000E-01",
    "Vapor Pressure": {
        "Equation Name": "KDB Correlation Equation",
        "Equation": "ln(Pvp) = A*ln(T) + B/T + C + D*T^2 where Pvp in kPa, T in K",
        "Coefficient A": "-1.029873E+01",
        "Coefficient B": "-7.349583E+03",
        "Coefficient C": "8.384761E+01",
        "Coefficient D": "7.188845E-06",
        "Coefficient E": NaN,
        "Coefficient F": NaN,
        "Coefficient G": NaN,
        "T range, from": "250.00 K",
        "T range, to": "567.00 K"
    },
    "Heat Capacity (Ideal Gas)": {
        "Equation Name": "Polynomial Equation",
        "Equation": "Cp = A + B*T + C*T^2 + D*T^3 + E*T^4  where Cp in kJ/kg-mol , T in K",
        "Coefficient A": "2.582561E+01",
        "Coefficient B": "4.739309E-01",
        "Coefficient C": "5.024727E-04",
        "Coefficient D": "-9.910685E-07",
        "Coefficient E": "4.421836E-10",
        "Coefficient F": NaN,
        "Coefficient G": NaN,
        "T range, from": NaN,
        "T range, to": NaN
    },
    "Heat Capacity (Liquid)": NaN,
    "Viscosity (Gas, Low P)": NaN,
    "Viscosity (Liquid)": NaN,
    "Themal Conductivity (Gas, Low P)": NaN,
    "Themal Conductivity (Liquid)": NaN,
    "Surface Tension": NaN,
    "Partial Molar Volume (VOLP)": NaN,
    "Solubility Parameters (SOLP)": "1.503225E+04 (J/cm^3)^0.5",
    "SRK accentric factor (WSRK)": NaN,
    "COSTALD Characteristic Volume (VSTAR)": NaN,
    "Rackett parameter (ZRA)": NaN,
    "Aniline Point (ANP)": "3.403500E+02 K",
    "H(formation,ideal gas)at 25 C": "-2.113000E+05 kJ/kg-mol",
    "G(formation,ideal gas) at 25 C": "2.127000E+04 kJ/kg-mol",
    "Heat of Combustion, Gross form (HCB1)": "5.470915E+06 kJ/kg-mol",
    "Heat of Combustion, Net form (HCB2)": "5.074774E+06 kJ/kg-mol",
    "Van der Waals Volume (VDWV)": NaN,
    "Van der Waals Area (VDWA)": NaN,
    "UNIQUAC Ri Parameter (RI)": NaN,
    "UNIQUAC Qi Parameter (QI)": NaN,
    "Dipole Moment (DM)": NaN,
    "Radius of Gyration (GYRAD)": NaN,
    "Liquid Density (DENL)": "6.294307E-03 g-mol/cm^3",
    "Temperature of DENL (TDENL)": "2.930000E+02 K",
    "Heat of Vaporizaiton (HVAP)": NaN,
    "Temperature of HVAP (THVAP)": NaN,
    "Surface Tension (SRF)": NaN,
    "Temperature of SRF (TSRF)": NaN,
    "Dielectric Constant (DIEL)": NaN,
    "Temperature of DIEL (TDIEL)": NaN,
    "Refractive Index (RFI)": "1.401670E+00",
    "Temperature of RFI (TRFI)": "2.981500E+02 K",
    "Lower Flammability Limit(FLL)": NaN,
    "Upper Flammability Limit(FLU)": NaN,
    "Flash Point (Open Cup Method)": NaN,
    "Flash Point (Closed Cup Method)": NaN,
    "Autoignition Temperature (AIGT)": NaN,
    "NFPA Rating (Health)": NaN,
    "NFPA Rating (Fire)": NaN,
    "NFPA Rating (Safety)": NaN,
    "Class": "Paraffinic Hydrocarbons",
    "Subclass": "Branched Alkanes",
    "SMILES": "CCC(CC)C(C)C"
}