{
    "ID": "584",
    "Name": "N-BUTYLCYCLOHEXANE",
    "Synonyms": "1-CYCLOHEXYLBUTANE",
    "CAS No.": "1678-93-9",
    "Formula": "C10H20",
    "Molecular Wt. (WT)": "1.40268E+02",
    "Normal Boiling Point Temp. (TB)": "4.54100E+02 K",
    "Freezing Point Temp. (TF)": "1.98400E+02 K",
    "Triple Point Temp. (TT)": NaN,
    "Triple Point Press. (PT)": NaN,
    "Critical Temperature. (TC)": "6.67000E+02 K",
    "Critical Pressure (PC)": "3.15000E+03 kPa",
    "Critical Volume (VC)": NaN,
    "Critical Compressibility (ZC)": NaN,
    "Accentric Factor (ACCF)": "3.62000E-01",
    "Vapor Pressure": {
        "Equation Name": "KDB Correlation Equation",
        "Equation": "ln(Pvp) = A*ln(T) + B/T + C + D*T^2 where Pvp in kPa, T in K",
        "Coefficient A": "-8.643354E+00",
        "Coefficient B": "-8.399376E+03",
        "Coefficient C": "7.543214E+01",
        "Coefficient D": "2.742928E-06",
        "Coefficient E": NaN,
        "Coefficient F": NaN,
        "Coefficient G": NaN,
        "T range, from": "198.42 K",
        "T range, to": "667.00 K"
    },
    "Heat Capacity (Ideal Gas)": {
        "Equation Name": "Polynomial Equation",
        "Equation": "Cp = A + B*T + C*T^2 + D*T^3 + E*T^4  where Cp in kJ/kg-mol , T in K",
        "Coefficient A": "-6.145145E+01",
        "Coefficient B": "1.060393E+00",
        "Coefficient C": "-5.626192E-04",
        "Coefficient D": "6.096789E-08",
        "Coefficient E": "2.957538E-11",
        "Coefficient F": NaN,
        "Coefficient G": NaN,
        "T range, from": NaN,
        "T range, to": NaN
    },
    "Heat Capacity (Liquid)": NaN,
    "Viscosity (Gas, Low P)": NaN,
    "Viscosity (Liquid)": {
        "Equation Name": "Andrade Equation",
        "Equation": "ln (VISL) = A + B/ T  where T in K and VISL in cP.",
        "Coefficient A": "-4.424",
        "Coefficient B": "1378",
        "Coefficient C": "0",
        "Coefficient D": "0",
        "Coefficient E": NaN,
        "Coefficient F": NaN,
        "Coefficient G": NaN,
        "T range, from": "253.15 K",
        "T range, to": "398.15 K"
    },
    "Themal Conductivity (Gas, Low P)": NaN,
    "Themal Conductivity (Liquid)": NaN,
    "Surface Tension": NaN,
    "Partial Molar Volume (VOLP)": NaN,
    "Solubility Parameters (SOLP)": "1.622477E+04 (J/cm^3)^0.5",
    "SRK accentric factor (WSRK)": NaN,
    "COSTALD Characteristic Volume (VSTAR)": NaN,
    "Rackett parameter (ZRA)": NaN,
    "Aniline Point (ANP)": NaN,
    "H(formation,ideal gas)at 25 C": "-2.133000E+05 kJ/kg-mol",
    "G(formation,ideal gas) at 25 C": "5.648000E+04 kJ/kg-mol",
    "Heat of Combustion, Gross form (HCB1)": NaN,
    "Heat of Combustion, Net form (HCB2)": NaN,
    "Van der Waals Volume (VDWV)": NaN,
    "Van der Waals Area (VDWA)": NaN,
    "UNIQUAC Ri Parameter (RI)": NaN,
    "UNIQUAC Qi Parameter (QI)": NaN,
    "Dipole Moment (DM)": NaN,
    "Radius of Gyration (GYRAD)": NaN,
    "Liquid Density (DENL)": "5.696238E-03 g-mol/cm^3",
    "Temperature of DENL (TDENL)": "2.930000E+02 K",
    "Heat of Vaporizaiton (HVAP)": "3.849300E+04 kJ/kg-mol",
    "Temperature of HVAP (THVAP)": "4.541000E+02 K",
    "Surface Tension (SRF)": "2.703000E+01 dyn/cm",
    "Temperature of SRF (TSRF)": "2.932000E+02 K",
    "Dielectric Constant (DIEL)": NaN,
    "Temperature of DIEL (TDIEL)": NaN,
    "Refractive Index (RFI)": NaN,
    "Temperature of RFI (TRFI)": NaN,
    "Lower Flammability Limit(FLL)": NaN,
    "Upper Flammability Limit(FLU)": NaN,
    "Flash Point (Open Cup Method)": NaN,
    "Flash Point (Closed Cup Method)": NaN,
    "Autoignition Temperature (AIGT)": NaN,
    "NFPA Rating (Health)": NaN,
    "NFPA Rating (Fire)": NaN,
    "NFPA Rating (Safety)": NaN,
    "Class": "Naphtenic Hydrocarbons",
    "Subclass": "Cycloalkanes",
    "SMILES": "CCCCC1CCCCC1"
}