{
    "ID": "596",
    "Name": "N-DECYLCYCLOPENTANE",
    "Synonyms": "1-CYCLOPENTYLDECANE, DECYLCYCLOPENTANE",
    "CAS No.": "1795-21-7",
    "Formula": "C15H30",
    "Molecular Wt. (WT)": "2.10402E+02",
    "Normal Boiling Point Temp. (TB)": "5.52500E+02 K",
    "Freezing Point Temp. (TF)": "2.51100E+02 K",
    "Triple Point Temp. (TT)": NaN,
    "Triple Point Press. (PT)": NaN,
    "Critical Temperature. (TC)": "7.30600E+02 K",
    "Critical Pressure (PC)": "1.63000E+03 kPa",
    "Critical Volume (VC)": "8.16500E-01 m^3/kg-mol",
    "Critical Compressibility (ZC)": "2.19092E-01",
    "Accentric Factor (ACCF)": "6.04000E-01",
    "Vapor Pressure": {
        "Equation Name": "KDB Correlation Equation",
        "Equation": "ln(Pvp) = A*ln(T) + B/T + C + D*T^2 where Pvp in kPa, T in K",
        "Coefficient A": "-1.863635E+01",
        "Coefficient B": "-1.446319E+04",
        "Coefficient C": "1.463298E+02",
        "Coefficient D": "7.025168E-06",
        "Coefficient E": NaN,
        "Coefficient F": NaN,
        "Coefficient G": NaN,
        "T range, from": "413.00 K",
        "T range, to": "730.64 K"
    },
    "Heat Capacity (Ideal Gas)": {
        "Equation Name": "Polynomial Equation",
        "Equation": "Cp = A + B*T + C*T^2 + D*T^3 + E*T^4  where Cp in kJ/kg-mol , T in K",
        "Coefficient A": "-7.241511E+01",
        "Coefficient B": "1.551678E+00",
        "Coefficient C": "-9.521223E-04",
        "Coefficient D": "2.620134E-07",
        "Coefficient E": "-1.930516E-11",
        "Coefficient F": NaN,
        "Coefficient G": NaN,
        "T range, from": NaN,
        "T range, to": NaN
    },
    "Heat Capacity (Liquid)": NaN,
    "Viscosity (Gas, Low P)": NaN,
    "Viscosity (Liquid)": {
        "Equation Name": "Andrade Equation",
        "Equation": "ln (VISL) = A + B/ T  where T in K and VISL in cP.",
        "Coefficient A": "-4.825",
        "Coefficient B": "1777",
        "Coefficient C": "0",
        "Coefficient D": "0",
        "Coefficient E": NaN,
        "Coefficient F": NaN,
        "Coefficient G": NaN,
        "T range, from": "253.15 K",
        "T range, to": "393.15 K"
    },
    "Themal Conductivity (Gas, Low P)": NaN,
    "Themal Conductivity (Liquid)": NaN,
    "Surface Tension": NaN,
    "Partial Molar Volume (VOLP)": NaN,
    "Solubility Parameters (SOLP)": NaN,
    "SRK accentric factor (WSRK)": NaN,
    "COSTALD Characteristic Volume (VSTAR)": NaN,
    "Rackett parameter (ZRA)": NaN,
    "Aniline Point (ANP)": NaN,
    "H(formation,ideal gas)at 25 C": "-2.922000E+05 kJ/kg-mol",
    "G(formation,ideal gas) at 25 C": "1.119000E+05 kJ/kg-mol",
    "Heat of Combustion, Gross form (HCB1)": NaN,
    "Heat of Combustion, Net form (HCB2)": NaN,
    "Van der Waals Volume (VDWV)": NaN,
    "Van der Waals Area (VDWA)": NaN,
    "UNIQUAC Ri Parameter (RI)": NaN,
    "UNIQUAC Qi Parameter (QI)": NaN,
    "Dipole Moment (DM)": NaN,
    "Radius of Gyration (GYRAD)": NaN,
    "Liquid Density (DENL)": "3.854526E-03 g-mol/cm^3",
    "Temperature of DENL (TDENL)": "2.930000E+02 K",
    "Heat of Vaporizaiton (HVAP)": "4.899500E+04 kJ/kg-mol",
    "Temperature of HVAP (THVAP)": "5.525000E+02 K",
    "Surface Tension (SRF)": "2.889000E+01 dyn/cm",
    "Temperature of SRF (TSRF)": "2.982000E+02 K",
    "Dielectric Constant (DIEL)": NaN,
    "Temperature of DIEL (TDIEL)": NaN,
    "Refractive Index (RFI)": NaN,
    "Temperature of RFI (TRFI)": NaN,
    "Lower Flammability Limit(FLL)": NaN,
    "Upper Flammability Limit(FLU)": NaN,
    "Flash Point (Open Cup Method)": NaN,
    "Flash Point (Closed Cup Method)": NaN,
    "Autoignition Temperature (AIGT)": NaN,
    "NFPA Rating (Health)": NaN,
    "NFPA Rating (Fire)": NaN,
    "NFPA Rating (Safety)": NaN,
    "Class": "Naphtenic Hydrocarbons",
    "Subclass": "Cycloalkanes",
    "SMILES": "CCCCCCCCCCC1CCCC1"
}