{
    "ID": "599",
    "Name": "N-DODECYLCYCLOPENTANE",
    "Synonyms": "DODECYLCYCLOPENTANE",
    "CAS No.": "5634-30-0",
    "Formula": "C17H34",
    "Molecular Wt. (WT)": "2.38456E+02",
    "Normal Boiling Point Temp. (TB)": "5.84100E+02 K",
    "Freezing Point Temp. (TF)": "2.68000E+02 K",
    "Triple Point Temp. (TT)": NaN,
    "Triple Point Press. (PT)": NaN,
    "Critical Temperature. (TC)": "7.55200E+02 K",
    "Critical Pressure (PC)": "1.40000E+03 kPa",
    "Critical Volume (VC)": "9.28500E-01 m^3/kg-mol",
    "Critical Compressibility (ZC)": "2.07020E-01",
    "Accentric Factor (ACCF)": "6.69000E-01",
    "Vapor Pressure": {
        "Equation Name": "KDB Correlation Equation",
        "Equation": "ln(Pvp) = A*ln(T) + B/T + C + D*T^2 where Pvp in kPa, T in K",
        "Coefficient A": "-2.262588E+01",
        "Coefficient B": "-1.707208E+04",
        "Coefficient C": "1.752060E+02",
        "Coefficient D": "8.113870E-06",
        "Coefficient E": NaN,
        "Coefficient F": NaN,
        "Coefficient G": NaN,
        "T range, from": "441.00 K",
        "T range, to": "619.00 K"
    },
    "Heat Capacity (Ideal Gas)": {
        "Equation Name": "Polynomial Equation",
        "Equation": "Cp = A + B*T + C*T^2 + D*T^3 + E*T^4  where Cp in kJ/kg-mol , T in K",
        "Coefficient A": "-6.326000E+01",
        "Coefficient B": "1.695000E+00",
        "Coefficient C": "-9.768000E-04",
        "Coefficient D": "2.186E-07",
        "Coefficient E": "0",
        "Coefficient F": NaN,
        "Coefficient G": NaN,
        "T range, from": NaN,
        "T range, to": NaN
    },
    "Heat Capacity (Liquid)": NaN,
    "Viscosity (Gas, Low P)": NaN,
    "Viscosity (Liquid)": {
        "Equation Name": "Andrade Equation",
        "Equation": "ln (VISL) = A + B/ T  where T in K and VISL in cP.",
        "Coefficient A": "-5.1",
        "Coefficient B": "1966",
        "Coefficient C": "0",
        "Coefficient D": "0",
        "Coefficient E": NaN,
        "Coefficient F": NaN,
        "Coefficient G": NaN,
        "T range, from": "268.15 K",
        "T range, to": "393.15 K"
    },
    "Themal Conductivity (Gas, Low P)": NaN,
    "Themal Conductivity (Liquid)": NaN,
    "Surface Tension": NaN,
    "Partial Molar Volume (VOLP)": NaN,
    "Solubility Parameters (SOLP)": "1.621454E+04 (J/cm^3)^0.5",
    "SRK accentric factor (WSRK)": NaN,
    "COSTALD Characteristic Volume (VSTAR)": NaN,
    "Rackett parameter (ZRA)": NaN,
    "Aniline Point (ANP)": NaN,
    "H(formation,ideal gas)at 25 C": "-3.361000E+05 kJ/kg-mol",
    "G(formation,ideal gas) at 25 C": "1.260000E+05 kJ/kg-mol",
    "Heat of Combustion, Gross form (HCB1)": NaN,
    "Heat of Combustion, Net form (HCB2)": NaN,
    "Van der Waals Volume (VDWV)": NaN,
    "Van der Waals Area (VDWA)": NaN,
    "UNIQUAC Ri Parameter (RI)": NaN,
    "UNIQUAC Qi Parameter (QI)": NaN,
    "Dipole Moment (DM)": NaN,
    "Radius of Gyration (GYRAD)": NaN,
    "Liquid Density (DENL)": "3.422021E-03 g-mol/cm^3",
    "Temperature of DENL (TDENL)": "2.930000E+02 K",
    "Heat of Vaporizaiton (HVAP)": "5.259300E+04 kJ/kg-mol",
    "Temperature of HVAP (THVAP)": "5.841000E+02 K",
    "Surface Tension (SRF)": "2.618000E+01 dyn/cm",
    "Temperature of SRF (TSRF)": "2.982000E+02 K",
    "Dielectric Constant (DIEL)": NaN,
    "Temperature of DIEL (TDIEL)": NaN,
    "Refractive Index (RFI)": NaN,
    "Temperature of RFI (TRFI)": NaN,
    "Lower Flammability Limit(FLL)": NaN,
    "Upper Flammability Limit(FLU)": NaN,
    "Flash Point (Open Cup Method)": NaN,
    "Flash Point (Closed Cup Method)": NaN,
    "Autoignition Temperature (AIGT)": NaN,
    "NFPA Rating (Health)": NaN,
    "NFPA Rating (Fire)": NaN,
    "NFPA Rating (Safety)": NaN,
    "Class": "Naphtenic Hydrocarbons",
    "Subclass": "Cycloalkanes",
    "SMILES": "CCCCCCCCCCCCC1CCCC1"
}