{
    "ID": "6",
    "Name": "N-HEXANE",
    "Synonyms": "HEXYL HYDRIDE, HEXANE",
    "CAS No.": "110-54-3",
    "Formula": "C6H14",
    "Molecular Wt. (WT)": "8.61766E+01",
    "Normal Boiling Point Temp. (TB)": "3.41880E+02 K",
    "Freezing Point Temp. (TF)": "1.77800E+02 K",
    "Triple Point Temp. (TT)": "1.77830E+02 K",
    "Triple Point Press. (PT)": NaN,
    "Critical Temperature. (TC)": "5.07600E+02 K",
    "Critical Pressure (PC)": "3.02500E+03 kPa",
    "Critical Volume (VC)": "3.68000E-01 m^3/kg-mol",
    "Critical Compressibility (ZC)": "2.63764E-01",
    "Accentric Factor (ACCF)": "2.99000E-01",
    "Vapor Pressure": {
        "Equation Name": "KDB Correlation Equation",
        "Equation": "ln(Pvp) = A*ln(T) + B/T + C + D*T^2 where Pvp in kPa, T in K",
        "Coefficient A": "-1.399935E+01",
        "Coefficient B": "-7.284572E+03",
        "Coefficient C": "1.059605E+02",
        "Coefficient D": "1.410325E-05",
        "Coefficient E": NaN,
        "Coefficient F": NaN,
        "Coefficient G": NaN,
        "T range, from": "177.84 K",
        "T range, to": "507.43 K"
    },
    "Heat Capacity (Ideal Gas)": {
        "Equation Name": "Polynomial Equation",
        "Equation": "Cp = A + B*T + C*T^2 + D*T^3 + E*T^4  where Cp in kJ/kg-mol , T in K",
        "Coefficient A": "3.236546E+01",
        "Coefficient B": "3.446541E-01",
        "Coefficient C": "2.026394E-04",
        "Coefficient D": "-3.806132E-07",
        "Coefficient E": "1.330551E-10",
        "Coefficient F": NaN,
        "Coefficient G": NaN,
        "T range, from": NaN,
        "T range, to": NaN
    },
    "Heat Capacity (Liquid)": NaN,
    "Viscosity (Gas, Low P)": NaN,
    "Viscosity (Liquid)": {
        "Equation Name": "Andrade Equation",
        "Equation": "ln (VISL) = A + B/ T  where T in K and VISL in cP.",
        "Coefficient A": "-4.034",
        "Coefficient B": "835.4",
        "Coefficient C": "0",
        "Coefficient D": "0",
        "Coefficient E": NaN,
        "Coefficient F": NaN,
        "Coefficient G": NaN,
        "T range, from": "178.15 K",
        "T range, to": "343.15 K"
    },
    "Themal Conductivity (Gas, Low P)": NaN,
    "Themal Conductivity (Liquid)": NaN,
    "Surface Tension": NaN,
    "Partial Molar Volume (VOLP)": "1.316100E-01 m^3/kg-mol",
    "Solubility Parameters (SOLP)": "1.486861E+04 (J/cm^3)^0.5",
    "SRK accentric factor (WSRK)": "3.007000E-01",
    "COSTALD Characteristic Volume (VSTAR)": "3.682000E-01 m^3/kg-mol",
    "Rackett parameter (ZRA)": "2.635000E-01",
    "Aniline Point (ANP)": "3.417500E+02 K",
    "H(formation,ideal gas)at 25 C": "-1.673000E+05 kJ/kg-mol",
    "G(formation,ideal gas) at 25 C": "-1.670000E+02 kJ/kg-mol",
    "Heat of Combustion, Gross form (HCB1)": "4.163122E+06 kJ/kg-mol",
    "Heat of Combustion, Net form (HCB2)": "3.855012E+06 kJ/kg-mol",
    "Van der Waals Volume (VDWV)": NaN,
    "Van der Waals Area (VDWA)": NaN,
    "UNIQUAC Ri Parameter (RI)": "4.499800E+00",
    "UNIQUAC Qi Parameter (QI)": "3.856000E+00",
    "Dipole Moment (DM)": "0.000000E+00 debye",
    "Radius of Gyration (GYRAD)": "3.812000E+00",
    "Liquid Density (DENL)": "7.647087E-03 g-mol/cm^3",
    "Temperature of DENL (TDENL)": "2.930000E+02 K",
    "Heat of Vaporizaiton (HVAP)": "2.885300E+04 kJ/kg-mol",
    "Temperature of HVAP (THVAP)": "3.419000E+02 K",
    "Surface Tension (SRF)": "1.840000E+01 dyn/cm",
    "Temperature of SRF (TSRF)": "2.932000E+02 K",
    "Dielectric Constant (DIEL)": NaN,
    "Temperature of DIEL (TDIEL)": NaN,
    "Refractive Index (RFI)": "1.372260E+00",
    "Temperature of RFI (TRFI)": "2.981500E+02 K",
    "Lower Flammability Limit(FLL)": "1.200000E+00 % in Air",
    "Upper Flammability Limit(FLU)": "7.700000E+00 % in Air",
    "Flash Point (Open Cup Method)": "2.514834E+02 K",
    "Flash Point (Closed Cup Method)": NaN,
    "Autoignition Temperature (AIGT)": "4.981500E+02 K",
    "NFPA Rating (Health)": "1",
    "NFPA Rating (Fire)": "3",
    "NFPA Rating (Safety)": NaN,
    "Class": "Paraffinic Hydrocarbons",
    "Subclass": "n-Alkanes",
    "SMILES": "CCCCCC"
}