{
    "ID": "60",
    "Name": "2,2,4-TRIMETHYLPENTANE",
    "Synonyms": "ISOOCTANE, ISOBUTYLTRIMETHYLMETHANE",
    "CAS No.": "540-84-1",
    "Formula": "C8H18",
    "Molecular Wt. (WT)": "1.14230E+02",
    "Normal Boiling Point Temp. (TB)": "3.72370E+02 K",
    "Freezing Point Temp. (TF)": "1.65800E+02 K",
    "Triple Point Temp. (TT)": NaN,
    "Triple Point Press. (PT)": NaN,
    "Critical Temperature. (TC)": "5.43800E+02 K",
    "Critical Pressure (PC)": "2.57000E+03 kPa",
    "Critical Volume (VC)": "4.68000E-01 m^3/kg-mol",
    "Critical Compressibility (ZC)": "2.66013E-01",
    "Accentric Factor (ACCF)": "3.03000E-01",
    "Vapor Pressure": {
        "Equation Name": "KDB Correlation Equation",
        "Equation": "ln(Pvp) = A*ln(T) + B/T + C + D*T^2 where Pvp in kPa, T in K",
        "Coefficient A": "-1.088582E+01",
        "Coefficient B": "-7.041769E+03",
        "Coefficient C": "8.674583E+01",
        "Coefficient D": "8.872766E-06",
        "Coefficient E": NaN,
        "Coefficient F": NaN,
        "Coefficient G": NaN,
        "T range, from": "165.78 K",
        "T range, to": "543.96 K"
    },
    "Heat Capacity (Ideal Gas)": {
        "Equation Name": "Polynomial Equation",
        "Equation": "Cp = A + B*T + C*T^2 + D*T^3 + E*T^4  where Cp in kJ/kg-mol , T in K",
        "Coefficient A": "-1.540928E+01",
        "Coefficient B": "7.992973E-01",
        "Coefficient C": "-3.974328E-04",
        "Coefficient D": "5.734412E-08",
        "Coefficient E": "1.140155E-11",
        "Coefficient F": NaN,
        "Coefficient G": NaN,
        "T range, from": NaN,
        "T range, to": NaN
    },
    "Heat Capacity (Liquid)": NaN,
    "Viscosity (Gas, Low P)": NaN,
    "Viscosity (Liquid)": NaN,
    "Themal Conductivity (Gas, Low P)": NaN,
    "Themal Conductivity (Liquid)": NaN,
    "Surface Tension": NaN,
    "Partial Molar Volume (VOLP)": "1.660800E-01 m^3/kg-mol",
    "Solubility Parameters (SOLP)": "1.402997E+04 (J/cm^3)^0.5",
    "SRK accentric factor (WSRK)": NaN,
    "COSTALD Characteristic Volume (VSTAR)": NaN,
    "Rackett parameter (ZRA)": "2.672000E-01",
    "Aniline Point (ANP)": "3.526500E+02 K",
    "H(formation,ideal gas)at 25 C": "-2.243000E+05 kJ/kg-mol",
    "G(formation,ideal gas) at 25 C": "1.369000E+04 kJ/kg-mol",
    "Heat of Combustion, Gross form (HCB1)": "5.461334E+06 kJ/kg-mol",
    "Heat of Combustion, Net form (HCB2)": "5.065192E+06 kJ/kg-mol",
    "Van der Waals Volume (VDWV)": NaN,
    "Van der Waals Area (VDWA)": NaN,
    "UNIQUAC Ri Parameter (RI)": 5.8463,
    "UNIQUAC Qi Parameter (QI)": 5.008,
    "Dipole Moment (DM)": NaN,
    "Radius of Gyration (GYRAD)": 4.171,
    "Liquid Density (DENL)": "6.057942E-03 g-mol/cm^3",
    "Temperature of DENL (TDENL)": "2.930000E+02 K",
    "Heat of Vaporizaiton (HVAP)": "3.100800E+04 kJ/kg-mol",
    "Temperature of HVAP (THVAP)": "3.724000E+02 K",
    "Surface Tension (SRF)": "1.833000E+01 dyn/cm",
    "Temperature of SRF (TSRF)": "2.982000E+02 K",
    "Dielectric Constant (DIEL)": NaN,
    "Temperature of DIEL (TDIEL)": NaN,
    "Refractive Index (RFI)": "1.388980E+00",
    "Temperature of RFI (TRFI)": "2.981500E+02 K",
    "Lower Flammability Limit(FLL)": NaN,
    "Upper Flammability Limit(FLU)": NaN,
    "Flash Point (Open Cup Method)": NaN,
    "Flash Point (Closed Cup Method)": NaN,
    "Autoignition Temperature (AIGT)": NaN,
    "NFPA Rating (Health)": NaN,
    "NFPA Rating (Fire)": 3.0,
    "NFPA Rating (Safety)": NaN,
    "Class": "Paraffinic Hydrocarbons",
    "Subclass": "Branched Alkanes",
    "SMILES": "CC(C)CC(C)(C)C"
}