{
    "ID": "609",
    "Name": "CYCLOPENTENE",
    "Synonyms": NaN,
    "CAS No.": "142-29-0",
    "Formula": "C5H8",
    "Molecular Wt. (WT)": "6.81182E+01",
    "Normal Boiling Point Temp. (TB)": "3.17390E+02 K",
    "Freezing Point Temp. (TF)": "1.38000E+02 K",
    "Triple Point Temp. (TT)": NaN,
    "Triple Point Press. (PT)": NaN,
    "Critical Temperature. (TC)": "5.06500E+02 K",
    "Critical Pressure (PC)": "4.80000E+03 kPa",
    "Critical Volume (VC)": "2.45000E-01 m^3/kg-mol",
    "Critical Compressibility (ZC)": "2.79249E-01",
    "Accentric Factor (ACCF)": "2.06000E-01",
    "Vapor Pressure": {
        "Equation Name": "KDB Correlation Equation",
        "Equation": "ln(Pvp) = A*ln(T) + B/T + C + D*T^2 where Pvp in kPa, T in K",
        "Coefficient A": "-8.057976E+00",
        "Coefficient B": "-5.419664E+03",
        "Coefficient C": "6.730944E+01",
        "Coefficient D": "7.947187E-06",
        "Coefficient E": NaN,
        "Coefficient F": NaN,
        "Coefficient G": NaN,
        "T range, from": "138.13 K",
        "T range, to": "507.00 K"
    },
    "Heat Capacity (Ideal Gas)": {
        "Equation Name": "Polynomial Equation",
        "Equation": "Cp = A + B*T + C*T^2 + D*T^3 + E*T^4  where Cp in kJ/kg-mol , T in K",
        "Coefficient A": "-5.117932E+01",
        "Coefficient B": "5.054246E-01",
        "Coefficient C": "-3.204049E-04",
        "Coefficient D": "9.049122E-08",
        "Coefficient E": "-6.875658E-12",
        "Coefficient F": NaN,
        "Coefficient G": NaN,
        "T range, from": NaN,
        "T range, to": NaN
    },
    "Heat Capacity (Liquid)": NaN,
    "Viscosity (Gas, Low P)": NaN,
    "Viscosity (Liquid)": NaN,
    "Themal Conductivity (Gas, Low P)": NaN,
    "Themal Conductivity (Liquid)": NaN,
    "Surface Tension": NaN,
    "Partial Molar Volume (VOLP)": NaN,
    "Solubility Parameters (SOLP)": "1.693455E+04 (J/cm^3)^0.5",
    "SRK accentric factor (WSRK)": "1.007000E-01",
    "COSTALD Characteristic Volume (VSTAR)": "2.375000E-01 m^3/kg-mol",
    "Rackett parameter (ZRA)": NaN,
    "Aniline Point (ANP)": "2.631500E+02 K",
    "H(formation,ideal gas)at 25 C": "3.295000E+04 kJ/kg-mol",
    "G(formation,ideal gas) at 25 C": "1.909000E+05 kJ/kg-mol",
    "Heat of Combustion, Gross form (HCB1)": "3.115197E+06 kJ/kg-mol",
    "Heat of Combustion, Net form (HCB2)": "2.939134E+06 kJ/kg-mol",
    "Van der Waals Volume (VDWV)": NaN,
    "Van der Waals Area (VDWA)": NaN,
    "UNIQUAC Ri Parameter (RI)": NaN,
    "UNIQUAC Qi Parameter (QI)": NaN,
    "Dipole Moment (DM)": "9.000000E-01 debye",
    "Radius of Gyration (GYRAD)": NaN,
    "Liquid Density (DENL)": "1.133324E-02 g-mol/cm^3",
    "Temperature of DENL (TDENL)": "2.930000E+02 K",
    "Heat of Vaporizaiton (HVAP)": "2.698700E+04 kJ/kg-mol",
    "Temperature of HVAP (THVAP)": "3.174000E+02 K",
    "Surface Tension (SRF)": "2.295000E+01 dyn/cm",
    "Temperature of SRF (TSRF)": "2.932000E+02 K",
    "Dielectric Constant (DIEL)": NaN,
    "Temperature of DIEL (TDIEL)": NaN,
    "Refractive Index (RFI)": "1.419400E+00",
    "Temperature of RFI (TRFI)": "2.981500E+02 K",
    "Lower Flammability Limit(FLL)": NaN,
    "Upper Flammability Limit(FLU)": NaN,
    "Flash Point (Open Cup Method)": NaN,
    "Flash Point (Closed Cup Method)": NaN,
    "Autoignition Temperature (AIGT)": NaN,
    "NFPA Rating (Health)": NaN,
    "NFPA Rating (Fire)": NaN,
    "NFPA Rating (Safety)": NaN,
    "Class": "Naphtenic Hydrocarbons",
    "Subclass": "Unsaturated naphthenes",
    "SMILES": "C1CC=CC1"
}