{
    "ID": "61",
    "Name": "2,3,3-TRIMETHYLPENTANE",
    "Synonyms": NaN,
    "CAS No.": "560-21-4",
    "Formula": "C8H18",
    "Molecular Wt. (WT)": "1.14230E+02",
    "Normal Boiling Point Temp. (TB)": "3.87900E+02 K",
    "Freezing Point Temp. (TF)": "1.72220E+02 K",
    "Triple Point Temp. (TT)": NaN,
    "Triple Point Press. (PT)": NaN,
    "Critical Temperature. (TC)": "5.73500E+02 K",
    "Critical Pressure (PC)": "2.82000E+03 kPa",
    "Critical Volume (VC)": "4.55000E-01 m^3/kg-mol",
    "Critical Compressibility (ZC)": "2.69086E-01",
    "Accentric Factor (ACCF)": "2.90000E-01",
    "Vapor Pressure": {
        "Equation Name": "KDB Correlation Equation",
        "Equation": "ln(Pvp) = A*ln(T) + B/T + C + D*T^2 where Pvp in kPa, T in K",
        "Coefficient A": "-9.148845E+00",
        "Coefficient B": "-6.897167E+03",
        "Coefficient C": "7.597404E+01",
        "Coefficient D": "6.395467E-06",
        "Coefficient E": NaN,
        "Coefficient F": NaN,
        "Coefficient G": NaN,
        "T range, from": "172.22 K",
        "T range, to": "573.50 K"
    },
    "Heat Capacity (Ideal Gas)": {
        "Equation Name": "Polynomial Equation",
        "Equation": "Cp = A + B*T + C*T^2 + D*T^3 + E*T^4  where Cp in kJ/kg-mol , T in K",
        "Coefficient A": "-9.215000E+00",
        "Coefficient B": "7.859000E-01",
        "Coefficient C": "-4.400000E-04",
        "Coefficient D": "9.697E-08",
        "Coefficient E": "0",
        "Coefficient F": NaN,
        "Coefficient G": NaN,
        "T range, from": NaN,
        "T range, to": NaN
    },
    "Heat Capacity (Liquid)": NaN,
    "Viscosity (Gas, Low P)": NaN,
    "Viscosity (Liquid)": NaN,
    "Themal Conductivity (Gas, Low P)": NaN,
    "Themal Conductivity (Liquid)": NaN,
    "Surface Tension": NaN,
    "Partial Molar Volume (VOLP)": NaN,
    "Solubility Parameters (SOLP)": "1.482770E+04 (J/cm^3)^0.5",
    "SRK accentric factor (WSRK)": "2.889000E-01",
    "COSTALD Characteristic Volume (VSTAR)": "4.632000E-01 m^3/kg-mol",
    "Rackett parameter (ZRA)": NaN,
    "Aniline Point (ANP)": "3.401500E+02 K",
    "H(formation,ideal gas)at 25 C": "-2.166000E+05 kJ/kg-mol",
    "G(formation,ideal gas) at 25 C": "1.892000E+04 kJ/kg-mol",
    "Heat of Combustion, Gross form (HCB1)": "5.466982E+06 kJ/kg-mol",
    "Heat of Combustion, Net form (HCB2)": "5.070841E+06 kJ/kg-mol",
    "Van der Waals Volume (VDWV)": NaN,
    "Van der Waals Area (VDWA)": NaN,
    "UNIQUAC Ri Parameter (RI)": NaN,
    "UNIQUAC Qi Parameter (QI)": NaN,
    "Dipole Moment (DM)": NaN,
    "Radius of Gyration (GYRAD)": NaN,
    "Liquid Density (DENL)": "6.355587E-03 g-mol/cm^3",
    "Temperature of DENL (TDENL)": "2.930000E+02 K",
    "Heat of Vaporizaiton (HVAP)": "3.234200E+04 kJ/kg-mol",
    "Temperature of HVAP (THVAP)": "3.879000E+02 K",
    "Surface Tension (SRF)": "2.112000E+01 dyn/cm",
    "Temperature of SRF (TSRF)": "2.982000E+02 K",
    "Dielectric Constant (DIEL)": NaN,
    "Temperature of DIEL (TDIEL)": NaN,
    "Refractive Index (RFI)": "1.405220E+00",
    "Temperature of RFI (TRFI)": "2.981500E+02 K",
    "Lower Flammability Limit(FLL)": NaN,
    "Upper Flammability Limit(FLU)": NaN,
    "Flash Point (Open Cup Method)": NaN,
    "Flash Point (Closed Cup Method)": NaN,
    "Autoignition Temperature (AIGT)": NaN,
    "NFPA Rating (Health)": NaN,
    "NFPA Rating (Fire)": 3.0,
    "NFPA Rating (Safety)": NaN,
    "Class": "Paraffinic Hydrocarbons",
    "Subclass": "Branched Alkanes",
    "SMILES": "CCC(C)(C)C(C)C"
}