{
    "ID": "63",
    "Name": "2,2,3,3-TETRAMETHYLBUTANE",
    "Synonyms": "HEXAMETHYLETHANE, TETRAMETHYLBUTANE",
    "CAS No.": "594-82-1",
    "Formula": "C8H18",
    "Molecular Wt. (WT)": "1.14230E+02",
    "Normal Boiling Point Temp. (TB)": "3.79600E+02 K",
    "Freezing Point Temp. (TF)": "3.73800E+02 K",
    "Triple Point Temp. (TT)": NaN,
    "Triple Point Press. (PT)": NaN,
    "Critical Temperature. (TC)": "5.67800E+02 K",
    "Critical Pressure (PC)": "2.87000E+03 kPa",
    "Critical Volume (VC)": "4.61000E-01 m^3/kg-mol",
    "Critical Compressibility (ZC)": "2.80253E-01",
    "Accentric Factor (ACCF)": "2.51000E-01",
    "Vapor Pressure": {
        "Equation Name": "KDB Correlation Equation",
        "Equation": "ln(Pvp) = A*ln(T) + B/T + C + D*T^2 where Pvp in kPa, T in K",
        "Coefficient A": "-1.727755E+01",
        "Coefficient B": "-9.963155E+03",
        "Coefficient C": "1.320582E+02",
        "Coefficient D": "9.391475E-06",
        "Coefficient E": NaN,
        "Coefficient F": NaN,
        "Coefficient G": NaN,
        "T range, from": "270.00 K",
        "T range, to": "567.80 K"
    },
    "Heat Capacity (Ideal Gas)": NaN,
    "Heat Capacity (Liquid)": NaN,
    "Viscosity (Gas, Low P)": NaN,
    "Viscosity (Liquid)": NaN,
    "Themal Conductivity (Gas, Low P)": NaN,
    "Themal Conductivity (Liquid)": NaN,
    "Surface Tension": NaN,
    "Partial Molar Volume (VOLP)": NaN,
    "Solubility Parameters (SOLP)": "1.319132E+04 (J/cm^3)^0.5",
    "SRK accentric factor (WSRK)": "2.513000E-01",
    "COSTALD Characteristic Volume (VSTAR)": "4.569000E-01 m^3/kg-mol",
    "Rackett parameter (ZRA)": "2.738000E-01",
    "Aniline Point (ANP)": NaN,
    "H(formation,ideal gas)at 25 C": NaN,
    "G(formation,ideal gas) at 25 C": NaN,
    "Heat of Combustion, Gross form (HCB1)": NaN,
    "Heat of Combustion, Net form (HCB2)": NaN,
    "Van der Waals Volume (VDWV)": NaN,
    "Van der Waals Area (VDWA)": NaN,
    "UNIQUAC Ri Parameter (RI)": NaN,
    "UNIQUAC Qi Parameter (QI)": NaN,
    "Dipole Moment (DM)": NaN,
    "Radius of Gyration (GYRAD)": NaN,
    "Liquid Density (DENL)": NaN,
    "Temperature of DENL (TDENL)": NaN,
    "Heat of Vaporizaiton (HVAP)": "3.142200E+04 kJ/kg-mol",
    "Temperature of HVAP (THVAP)": "3.796000E+02 K",
    "Surface Tension (SRF)": "2.022000E+01 dyn/cm",
    "Temperature of SRF (TSRF)": "2.982000E+02 K",
    "Dielectric Constant (DIEL)": NaN,
    "Temperature of DIEL (TDIEL)": NaN,
    "Refractive Index (RFI)": NaN,
    "Temperature of RFI (TRFI)": NaN,
    "Lower Flammability Limit(FLL)": NaN,
    "Upper Flammability Limit(FLU)": NaN,
    "Flash Point (Open Cup Method)": NaN,
    "Flash Point (Closed Cup Method)": NaN,
    "Autoignition Temperature (AIGT)": NaN,
    "NFPA Rating (Health)": NaN,
    "NFPA Rating (Fire)": NaN,
    "NFPA Rating (Safety)": NaN,
    "Class": "Paraffinic Hydrocarbons",
    "Subclass": "Branched Alkanes",
    "SMILES": "CC(C)(C)C(C)(C)C"
}