{
    "ID": "651",
    "Name": "BENZENE",
    "Synonyms": "BENZOL, CYCLOHEXATRIENE, PHENYL HYDRIDE",
    "CAS No.": "71-43-2",
    "Formula": "C6H6",
    "Molecular Wt. (WT)": "7.81134E+01",
    "Normal Boiling Point Temp. (TB)": "3.53240E+02 K",
    "Freezing Point Temp. (TF)": "2.78680E+02 K",
    "Triple Point Temp. (TT)": NaN,
    "Triple Point Press. (PT)": NaN,
    "Critical Temperature. (TC)": "5.62050E+02 K",
    "Critical Pressure (PC)": "4.89500E+03 kPa",
    "Critical Volume (VC)": "2.56000E-01 m^3/kg-mol",
    "Critical Compressibility (ZC)": "2.68152E-01",
    "Accentric Factor (ACCF)": "2.12000E-01",
    "Vapor Pressure": {
        "Equation Name": "KDB Correlation Equation",
        "Equation": "ln(Pvp) = A*ln(T) + B/T + C + D*T^2 where Pvp in kPa, T in K",
        "Coefficient A": "-8.433613E+00",
        "Coefficient B": "-6.281040E+03",
        "Coefficient C": "7.110718E+01",
        "Coefficient D": "6.198413E-06",
        "Coefficient E": NaN,
        "Coefficient F": NaN,
        "Coefficient G": NaN,
        "T range, from": "278.68 K",
        "T range, to": "562.16 K"
    },
    "Heat Capacity (Ideal Gas)": {
        "Equation Name": "Polynomial Equation",
        "Equation": "Cp = A + B*T + C*T^2 + D*T^3 + E*T^4  where Cp in kJ/kg-mol , T in K",
        "Coefficient A": "-6.071079E+01",
        "Coefficient B": "6.266738E-01",
        "Coefficient C": "-5.795328E-04",
        "Coefficient D": "2.799076E-07",
        "Coefficient E": "-5.493022E-11",
        "Coefficient F": NaN,
        "Coefficient G": NaN,
        "T range, from": NaN,
        "T range, to": NaN
    },
    "Heat Capacity (Liquid)": {
        "Equation Name": "Polynomial Equation",
        "Equation": "Cp = A + B*T + C*T^2 + D*T^3  where T in K and Cp in kJ/kg-mol.K",
        "Coefficient A": "-484.03",
        "Coefficient B": "5.052738",
        "Coefficient C": "-1.428232E-02",
        "Coefficient D": "1.440978E-05",
        "Coefficient E": NaN,
        "Coefficient F": NaN,
        "Coefficient G": NaN,
        "T range, from": "278.68 K",
        "T range, to": "523.15 K"
    },
    "Viscosity (Gas, Low P)": {
        "Equation Name": "Polynomial Equation",
        "Equation": "VISG = A + B*T + C*T^2 where T in K and VISG in cP",
        "Coefficient A": "-.001576",
        "Coefficient B": "3.245E-05",
        "Coefficient C": "-7.232E-09",
        "Coefficient D": "0",
        "Coefficient E": NaN,
        "Coefficient F": NaN,
        "Coefficient G": NaN,
        "T range, from": "273.15 K",
        "T range, to": "1273.15 K"
    },
    "Viscosity (Liquid)": {
        "Equation Name": "Quasipolynomial Equation",
        "Equation": "ln (VISL) = A + B/T + C*T + D*T^2  where T in K and VISL in cP.",
        "Coefficient A": "4.612",
        "Coefficient B": "148.9",
        "Coefficient C": "-.02544",
        "Coefficient D": "2.222E-05",
        "Coefficient E": NaN,
        "Coefficient F": NaN,
        "Coefficient G": NaN,
        "T range, from": "279.15 K",
        "T range, to": "561.15 K"
    },
    "Themal Conductivity (Gas, Low P)": {
        "Equation Name": "Polynomial Equation",
        "Equation": "THG = A + B*T + C*T^2 + D*T^3  where T in K and THG in W/m.K",
        "Coefficient A": "-.008455",
        "Coefficient B": "3.618E-05",
        "Coefficient C": "9.799E-08",
        "Coefficient D": "-4.058E-11",
        "Coefficient E": NaN,
        "Coefficient F": NaN,
        "Coefficient G": NaN,
        "T range, from": "273 K",
        "T range, to": "1270 K"
    },
    "Themal Conductivity (Liquid)": {
        "Equation Name": "Polynomial Equation",
        "Equation": "THL = A + B*T + C*T^2 + D*T^3  where T in K and THL in W/m.K",
        "Coefficient A": ".1776",
        "Coefficient B": "4.773E-06",
        "Coefficient C": "-3.781E-07",
        "Coefficient D": "0",
        "Coefficient E": NaN,
        "Coefficient F": NaN,
        "Coefficient G": NaN,
        "T range, from": "278 K",
        "T range, to": "533 K"
    },
    "Surface Tension": NaN,
    "Partial Molar Volume (VOLP)": "8.941000E-02 m^3/kg-mol",
    "Solubility Parameters (SOLP)": "1.873458E+04 (J/cm^3)^0.5",
    "SRK accentric factor (WSRK)": "2.137000E-01",
    "COSTALD Characteristic Volume (VSTAR)": "2.564000E-01 m^3/kg-mol",
    "Rackett parameter (ZRA)": "2.698000E-01",
    "Aniline Point (ANP)": NaN,
    "H(formation,ideal gas)at 25 C": "8.298000E+04 kJ/kg-mol",
    "G(formation,ideal gas) at 25 C": "1.297000E+05 kJ/kg-mol",
    "Heat of Combustion, Gross form (HCB1)": "3.267620E+06 kJ/kg-mol",
    "Heat of Combustion, Net form (HCB2)": "3.135573E+06 kJ/kg-mol",
    "Van der Waals Volume (VDWV)": NaN,
    "Van der Waals Area (VDWA)": NaN,
    "UNIQUAC Ri Parameter (RI)": "3.187800E+00",
    "UNIQUAC Qi Parameter (QI)": "2.400000E+00",
    "Dipole Moment (DM)": "0.000000E+00 debye",
    "Radius of Gyration (GYRAD)": "3.004000E+00",
    "Liquid Density (DENL)": "1.132968E-02 g-mol/cm^3",
    "Temperature of DENL (TDENL)": "2.890000E+02 K",
    "Heat of Vaporizaiton (HVAP)": "3.076100E+04 kJ/kg-mol",
    "Temperature of HVAP (THVAP)": "3.533000E+02 K",
    "Surface Tension (SRF)": "2.888000E+01 dyn/cm",
    "Temperature of SRF (TSRF)": "2.932000E+02 K",
    "Dielectric Constant (DIEL)": NaN,
    "Temperature of DIEL (TDIEL)": NaN,
    "Refractive Index (RFI)": "1.497920E+00",
    "Temperature of RFI (TRFI)": "2.981500E+02 K",
    "Lower Flammability Limit(FLL)": "1.300000E+00 % in Air",
    "Upper Flammability Limit(FLU)": "7.900000E+00 % in Air",
    "Flash Point (Open Cup Method)": "2.620389E+02 K",
    "Flash Point (Closed Cup Method)": NaN,
    "Autoignition Temperature (AIGT)": "8.648167E+02 K",
    "NFPA Rating (Health)": "2",
    "NFPA Rating (Fire)": "3",
    "NFPA Rating (Safety)": NaN,
    "Class": "Aromatics",
    "Subclass": "Alkyl Benzene",
    "SMILES": "C1=CC=CC=C1"
}