{
    "ID": "652",
    "Name": "TOLUENE",
    "Synonyms": "METHYLBENZENE, METHACIDE, METHYLBENZOL",
    "CAS No.": "108-88-3",
    "Formula": "C7H8",
    "Molecular Wt. (WT)": "9.21402E+01",
    "Normal Boiling Point Temp. (TB)": "3.83780E+02 K",
    "Freezing Point Temp. (TF)": "1.78160E+02 K",
    "Triple Point Temp. (TT)": NaN,
    "Triple Point Press. (PT)": NaN,
    "Critical Temperature. (TC)": "5.91750E+02 K",
    "Critical Pressure (PC)": "4.10800E+03 kPa",
    "Critical Volume (VC)": "3.16000E-01 m^3/kg-mol",
    "Critical Compressibility (ZC)": "2.63841E-01",
    "Accentric Factor (ACCF)": "2.63000E-01",
    "Vapor Pressure": {
        "Equation Name": "KDB Correlation Equation",
        "Equation": "ln(Pvp) = A*ln(T) + B/T + C + D*T^2 where Pvp in kPa, T in K",
        "Coefficient A": "-8.795480E+00",
        "Coefficient B": "-6.918798E+03",
        "Coefficient C": "7.413580E+01",
        "Coefficient D": "5.754912E-06",
        "Coefficient E": NaN,
        "Coefficient F": NaN,
        "Coefficient G": NaN,
        "T range, from": "178.18 K",
        "T range, to": "591.79 K"
    },
    "Heat Capacity (Ideal Gas)": {
        "Equation Name": "Polynomial Equation",
        "Equation": "Cp = A + B*T + C*T^2 + D*T^3 + E*T^4  where Cp in kJ/kg-mol , T in K",
        "Coefficient A": "-2.048846E+01",
        "Coefficient B": "4.799697E-01",
        "Coefficient C": "-1.635974E-04",
        "Coefficient D": "-8.868952E-08",
        "Coefficient E": "5.444985E-11",
        "Coefficient F": NaN,
        "Coefficient G": NaN,
        "T range, from": NaN,
        "T range, to": NaN
    },
    "Heat Capacity (Liquid)": {
        "Equation Name": "Polynomial Equation",
        "Equation": "Cp = A + B*T + C*T^2 + D*T^3  where T in K and Cp in kJ/kg-mol.K",
        "Coefficient A": "-56.32368",
        "Coefficient B": "1.767199",
        "Coefficient C": "-5.189027E-03",
        "Coefficient D": "5.493583E-06",
        "Coefficient E": NaN,
        "Coefficient F": NaN,
        "Coefficient G": NaN,
        "T range, from": "178.15 K",
        "T range, to": "583.15 K"
    },
    "Viscosity (Gas, Low P)": {
        "Equation Name": "Polynomial Equation",
        "Equation": "VISG = A + B*T + C*T^2 where T in K and VISG in cP",
        "Coefficient A": "-.0008421",
        "Coefficient B": "2.711E-05",
        "Coefficient C": "-4.018E-09",
        "Coefficient D": "0",
        "Coefficient E": NaN,
        "Coefficient F": NaN,
        "Coefficient G": NaN,
        "T range, from": "273.15 K",
        "T range, to": "1273.15 K"
    },
    "Viscosity (Liquid)": {
        "Equation Name": "Quasipolynomial Equation",
        "Equation": "ln (VISL) = A + B/T + C*T + D*T^2  where T in K and VISL in cP.",
        "Coefficient A": "-5.878",
        "Coefficient B": "1287",
        "Coefficient C": ".004575",
        "Coefficient D": "-4.499E-06",
        "Coefficient E": NaN,
        "Coefficient F": NaN,
        "Coefficient G": NaN,
        "T range, from": "233.15 K",
        "T range, to": "588.15 K"
    },
    "Themal Conductivity (Gas, Low P)": {
        "Equation Name": "Polynomial Equation",
        "Equation": "THG = A + B*T + C*T^2 + D*T^3  where T in K and THG in W/m.K",
        "Coefficient A": ".007596",
        "Coefficient B": "-4.008E-05",
        "Coefficient C": "2.37E-07",
        "Coefficient D": "-9.305001E-11",
        "Coefficient E": NaN,
        "Coefficient F": NaN,
        "Coefficient G": NaN,
        "T range, from": "273 K",
        "T range, to": "1270 K"
    },
    "Themal Conductivity (Liquid)": {
        "Equation Name": "Polynomial Equation",
        "Equation": "THL = A + B*T + C*T^2 + D*T^3  where T in K and THL in W/m.K",
        "Coefficient A": ".2031",
        "Coefficient B": "-.0002254",
        "Coefficient C": "-2.47E-08",
        "Coefficient D": "0",
        "Coefficient E": NaN,
        "Coefficient F": NaN,
        "Coefficient G": NaN,
        "T range, from": "178 K",
        "T range, to": "581 K"
    },
    "Surface Tension": NaN,
    "Partial Molar Volume (VOLP)": "1.068500E-01 m^3/kg-mol",
    "Solubility Parameters (SOLP)": "1.822321E+04 (J/cm^3)^0.5",
    "SRK accentric factor (WSRK)": "2.651000E-01",
    "COSTALD Characteristic Volume (VSTAR)": "3.137000E-01 m^3/kg-mol",
    "Rackett parameter (ZRA)": "2.644000E-01",
    "Aniline Point (ANP)": NaN,
    "H(formation,ideal gas)at 25 C": "5.003000E+04 kJ/kg-mol",
    "G(formation,ideal gas) at 25 C": "1.221000E+05 kJ/kg-mol",
    "Heat of Combustion, Gross form (HCB1)": "3.909948E+06 kJ/kg-mol",
    "Heat of Combustion, Net form (HCB2)": "3.733885E+06 kJ/kg-mol",
    "Van der Waals Volume (VDWV)": NaN,
    "Van der Waals Area (VDWA)": NaN,
    "UNIQUAC Ri Parameter (RI)": "3.922800E+00",
    "UNIQUAC Qi Parameter (QI)": "2.968000E+00",
    "Dipole Moment (DM)": "4.000000E-01 debye",
    "Radius of Gyration (GYRAD)": "3.443000E+00",
    "Liquid Density (DENL)": "9.409574E-03 g-mol/cm^3",
    "Temperature of DENL (TDENL)": "2.930000E+02 K",
    "Heat of Vaporizaiton (HVAP)": "3.317900E+04 kJ/kg-mol",
    "Temperature of HVAP (THVAP)": "3.837000E+02 K",
    "Surface Tension (SRF)": "2.852000E+01 dyn/cm",
    "Temperature of SRF (TSRF)": "2.932000E+02 K",
    "Dielectric Constant (DIEL)": NaN,
    "Temperature of DIEL (TDIEL)": NaN,
    "Refractive Index (RFI)": "1.494130E+00",
    "Temperature of RFI (TRFI)": "2.981500E+02 K",
    "Lower Flammability Limit(FLL)": "1.270000E+00 % in Air",
    "Upper Flammability Limit(FLU)": "7.000000E+00 % in Air",
    "Flash Point (Open Cup Method)": "2.775945E+02 K",
    "Flash Point (Closed Cup Method)": "2.859278E+02 K",
    "Autoignition Temperature (AIGT)": "8.092612E+02 K",
    "NFPA Rating (Health)": "2",
    "NFPA Rating (Fire)": "3",
    "NFPA Rating (Safety)": NaN,
    "Class": "Aromatics",
    "Subclass": "Alkyl Benzene",
    "SMILES": "CC1=CC=CC=C1"
}