{
    "ID": "653",
    "Name": "ETHYLBENZENE",
    "Synonyms": "ETHYLBENZOL, PHENYLETHANE, AETHYLBENZOL",
    "CAS No.": "100-41-4",
    "Formula": "C8H10",
    "Molecular Wt. (WT)": "1.06167E+02",
    "Normal Boiling Point Temp. (TB)": "4.09340E+02 K",
    "Freezing Point Temp. (TF)": "1.78200E+02 K",
    "Triple Point Temp. (TT)": NaN,
    "Triple Point Press. (PT)": NaN,
    "Critical Temperature. (TC)": "6.17150E+02 K",
    "Critical Pressure (PC)": "3.60900E+03 kPa",
    "Critical Volume (VC)": "3.74000E-01 m^3/kg-mol",
    "Critical Compressibility (ZC)": "2.63046E-01",
    "Accentric Factor (ACCF)": "3.02000E-01",
    "Vapor Pressure": {
        "Equation Name": "KDB Correlation Equation",
        "Equation": "ln(Pvp) = A*ln(T) + B/T + C + D*T^2 where Pvp in kPa, T in K",
        "Coefficient A": "-9.553983E+00",
        "Coefficient B": "-7.638082E+03",
        "Coefficient C": "7.979371E+01",
        "Coefficient D": "5.653180E-06",
        "Coefficient E": NaN,
        "Coefficient F": NaN,
        "Coefficient G": NaN,
        "T range, from": "178.15 K",
        "T range, to": "617.17 K"
    },
    "Heat Capacity (Ideal Gas)": {
        "Equation Name": "Polynomial Equation",
        "Equation": "Cp = A + B*T + C*T^2 + D*T^3 + E*T^4  where Cp in kJ/kg-mol , T in K",
        "Coefficient A": "3.930833E+01",
        "Coefficient B": "7.510108E-02",
        "Coefficient C": "1.174556E-03",
        "Coefficient D": "-1.654854E-06",
        "Coefficient E": "6.794317E-10",
        "Coefficient F": NaN,
        "Coefficient G": NaN,
        "T range, from": NaN,
        "T range, to": NaN
    },
    "Heat Capacity (Liquid)": {
        "Equation Name": "Polynomial Equation",
        "Equation": "Cp = A + B*T + C*T^2 + D*T^3  where T in K and Cp in kJ/kg-mol.K",
        "Coefficient A": "21.94806",
        "Coefficient B": "1.204234",
        "Coefficient C": "-3.202702E-03",
        "Coefficient D": "3.397707E-06",
        "Coefficient E": NaN,
        "Coefficient F": NaN,
        "Coefficient G": NaN,
        "T range, from": "178.15 K",
        "T range, to": "593.15 K"
    },
    "Viscosity (Gas, Low P)": {
        "Equation Name": "Polynomial Equation",
        "Equation": "VISG = A + B*T + C*T^2 where T in K and VISG in cP",
        "Coefficient A": "-.001417",
        "Coefficient B": "2.737E-05",
        "Coefficient C": "-4.732E-09",
        "Coefficient D": "0",
        "Coefficient E": NaN,
        "Coefficient F": NaN,
        "Coefficient G": NaN,
        "T range, from": "273.15 K",
        "T range, to": "1273.15 K"
    },
    "Viscosity (Liquid)": {
        "Equation Name": "Quasipolynomial Equation",
        "Equation": "ln (VISL) = A + B/T + C*T + D*T^2  where T in K and VISL in cP.",
        "Coefficient A": "-6.106",
        "Coefficient B": "1353",
        "Coefficient C": ".005112",
        "Coefficient D": "-4.552E-06",
        "Coefficient E": NaN,
        "Coefficient F": NaN,
        "Coefficient G": NaN,
        "T range, from": "233.15 K",
        "T range, to": "613.15 K"
    },
    "Themal Conductivity (Gas, Low P)": {
        "Equation Name": "Polynomial Equation",
        "Equation": "THG = A + B*T + C*T^2 + D*T^3  where T in K and THG in W/m.K",
        "Coefficient A": ".000603",
        "Coefficient B": "-5.863E-06",
        "Coefficient C": "2.14E-07",
        "Coefficient D": "-8.924E-11",
        "Coefficient E": NaN,
        "Coefficient F": NaN,
        "Coefficient G": NaN,
        "T range, from": "273 K",
        "T range, to": "1270 K"
    },
    "Themal Conductivity (Liquid)": {
        "Equation Name": "Polynomial Equation",
        "Equation": "THL = A + B*T + C*T^2 + D*T^3  where T in K and THL in W/m.K",
        "Coefficient A": ".2142",
        "Coefficient B": "-.000344",
        "Coefficient C": "1.943E-07",
        "Coefficient D": "0",
        "Coefficient E": NaN,
        "Coefficient F": NaN,
        "Coefficient G": NaN,
        "T range, from": "178 K",
        "T range, to": "573 K"
    },
    "Surface Tension": NaN,
    "Partial Molar Volume (VOLP)": "1.230700E-01 m^3/kg-mol",
    "Solubility Parameters (SOLP)": "1.797775E+04 (J/cm^3)^0.5",
    "SRK accentric factor (WSRK)": "3.048000E-01",
    "COSTALD Characteristic Volume (VSTAR)": "3.702000E-01 m^3/kg-mol",
    "Rackett parameter (ZRA)": "2.626000E-01",
    "Aniline Point (ANP)": NaN,
    "H(formation,ideal gas)at 25 C": "2.981000E+04 kJ/kg-mol",
    "G(formation,ideal gas) at 25 C": "1.307000E+05 kJ/kg-mol",
    "Heat of Combustion, Gross form (HCB1)": "4.564870E+06 kJ/kg-mol",
    "Heat of Combustion, Net form (HCB2)": "4.344792E+06 kJ/kg-mol",
    "Van der Waals Volume (VDWV)": NaN,
    "Van der Waals Area (VDWA)": NaN,
    "UNIQUAC Ri Parameter (RI)": "4.597200E+00",
    "UNIQUAC Qi Parameter (QI)": "3.508000E+00",
    "Dipole Moment (DM)": "4.000000E-01 debye",
    "Radius of Gyration (GYRAD)": "3.821000E+00",
    "Liquid Density (DENL)": "8.166379E-03 g-mol/cm^3",
    "Temperature of DENL (TDENL)": "2.930000E+02 K",
    "Heat of Vaporizaiton (HVAP)": "3.556400E+04 kJ/kg-mol",
    "Temperature of HVAP (THVAP)": "4.092000E+02 K",
    "Surface Tension (SRF)": "2.929000E+01 dyn/cm",
    "Temperature of SRF (TSRF)": "2.932000E+02 K",
    "Dielectric Constant (DIEL)": NaN,
    "Temperature of DIEL (TDIEL)": NaN,
    "Refractive Index (RFI)": "1.493200E+00",
    "Temperature of RFI (TRFI)": "2.981500E+02 K",
    "Lower Flammability Limit(FLL)": "1.000000E+00 % in Air",
    "Upper Flammability Limit(FLU)": "6.700000E+00 % in Air",
    "Flash Point (Open Cup Method)": "2.881500E+02 K",
    "Flash Point (Closed Cup Method)": "2.998167E+02 K",
    "Autoignition Temperature (AIGT)": "7.331500E+02 K",
    "NFPA Rating (Health)": "2",
    "NFPA Rating (Fire)": "3",
    "NFPA Rating (Safety)": NaN,
    "Class": "Aromatics",
    "Subclass": "Alkyl Benzene",
    "SMILES": "CCC1=CC=CC=C1"
}