{
    "ID": "654",
    "Name": "O-XYLENE",
    "Synonyms": "1,2-DIMETHYLBENZENE, O-DIMETHYLBENZENE, O-METHYLTOLUENE",
    "CAS No.": "95-47-6",
    "Formula": "C8H10",
    "Molecular Wt. (WT)": "1.06167E+02",
    "Normal Boiling Point Temp. (TB)": "4.17600E+02 K",
    "Freezing Point Temp. (TF)": "2.47900E+02 K",
    "Triple Point Temp. (TT)": NaN,
    "Triple Point Press. (PT)": NaN,
    "Critical Temperature. (TC)": "6.30300E+02 K",
    "Critical Pressure (PC)": "3.73200E+03 kPa",
    "Critical Volume (VC)": "3.70000E-01 m^3/kg-mol",
    "Critical Compressibility (ZC)": "2.63487E-01",
    "Accentric Factor (ACCF)": "3.10000E-01",
    "Vapor Pressure": {
        "Equation Name": "KDB Correlation Equation",
        "Equation": "ln(Pvp) = A*ln(T) + B/T + C + D*T^2 where Pvp in kPa, T in K",
        "Coefficient A": "-1.006059E+01",
        "Coefficient B": "-7.946229E+03",
        "Coefficient C": "8.332184E+01",
        "Coefficient D": "5.939742E-06",
        "Coefficient E": NaN,
        "Coefficient F": NaN,
        "Coefficient G": NaN,
        "T range, from": "247.98 K",
        "T range, to": "630.37 K"
    },
    "Heat Capacity (Ideal Gas)": {
        "Equation Name": "Polynomial Equation",
        "Equation": "Cp = A + B*T + C*T^2 + D*T^3 + E*T^4  where Cp in kJ/kg-mol , T in K",
        "Coefficient A": "-1.261828E+01",
        "Coefficient B": "5.659600E-01",
        "Coefficient C": "-2.796169E-04",
        "Coefficient D": "2.028101E-08",
        "Coefficient E": "1.720606E-11",
        "Coefficient F": NaN,
        "Coefficient G": NaN,
        "T range, from": NaN,
        "T range, to": NaN
    },
    "Heat Capacity (Liquid)": {
        "Equation Name": "Polynomial Equation",
        "Equation": "Cp = A + B*T + C*T^2 + D*T^3  where T in K and Cp in kJ/kg-mol.K",
        "Coefficient A": "-199.8024",
        "Coefficient B": "3.061445",
        "Coefficient C": "-8.26217E-03",
        "Coefficient D": "7.933461E-06",
        "Coefficient E": NaN,
        "Coefficient F": NaN,
        "Coefficient G": NaN,
        "T range, from": "247.95 K",
        "T range, to": "598.15 K"
    },
    "Viscosity (Gas, Low P)": {
        "Equation Name": "Polynomial Equation",
        "Equation": "VISG = A + B*T + C*T^2 where T in K and VISG in cP",
        "Coefficient A": ".0001776",
        "Coefficient B": "2.174E-05",
        "Coefficient C": "-2.057E-09",
        "Coefficient D": "0",
        "Coefficient E": NaN,
        "Coefficient F": NaN,
        "Coefficient G": NaN,
        "T range, from": "273.15 K",
        "T range, to": "1273.15 K"
    },
    "Viscosity (Liquid)": {
        "Equation Name": "Quasipolynomial Equation",
        "Equation": "ln (VISL) = A + B/T + C*T + D*T^2  where T in K and VISL in cP.",
        "Coefficient A": "-3.332",
        "Coefficient B": "1039",
        "Coefficient C": "-.001768",
        "Coefficient D": "1.076E-06",
        "Coefficient E": NaN,
        "Coefficient F": NaN,
        "Coefficient G": NaN,
        "T range, from": "248.15 K",
        "T range, to": "623.15 K"
    },
    "Themal Conductivity (Gas, Low P)": {
        "Equation Name": "Polynomial Equation",
        "Equation": "THG = A + B*T + C*T^2 + D*T^3  where T in K and THG in W/m.K",
        "Coefficient A": "-.00572",
        "Coefficient B": "3.572E-05",
        "Coefficient C": "7.454E-08",
        "Coefficient D": "-2.621E-11",
        "Coefficient E": NaN,
        "Coefficient F": NaN,
        "Coefficient G": NaN,
        "T range, from": "273 K",
        "T range, to": "1270 K"
    },
    "Themal Conductivity (Liquid)": {
        "Equation Name": "Polynomial Equation",
        "Equation": "THL = A + B*T + C*T^2 + D*T^3  where T in K and THL in W/m.K",
        "Coefficient A": ".1649",
        "Coefficient B": "-.0000744",
        "Coefficient C": "-1.415E-07",
        "Coefficient D": "0",
        "Coefficient E": NaN,
        "Coefficient F": NaN,
        "Coefficient G": NaN,
        "T range, from": "248 K",
        "T range, to": "605 K"
    },
    "Surface Tension": NaN,
    "Partial Molar Volume (VOLP)": "1.212000E-01 m^3/kg-mol",
    "Solubility Parameters (SOLP)": "1.838684E+04 (J/cm^3)^0.5",
    "SRK accentric factor (WSRK)": "3.118000E-01",
    "COSTALD Characteristic Volume (VSTAR)": "3.673000E-01 m^3/kg-mol",
    "Rackett parameter (ZRA)": "2.620000E-01",
    "Aniline Point (ANP)": NaN,
    "H(formation,ideal gas)at 25 C": "1.900000E+04 kJ/kg-mol",
    "G(formation,ideal gas) at 25 C": "1.222000E+05 kJ/kg-mol",
    "Heat of Combustion, Gross form (HCB1)": "4.552862E+06 kJ/kg-mol",
    "Heat of Combustion, Net form (HCB2)": "4.332784E+06 kJ/kg-mol",
    "Van der Waals Volume (VDWV)": NaN,
    "Van der Waals Area (VDWA)": NaN,
    "UNIQUAC Ri Parameter (RI)": "4.657800E+00",
    "UNIQUAC Qi Parameter (QI)": "3.536000E+00",
    "Dipole Moment (DM)": "5.000000E-01 debye",
    "Radius of Gyration (GYRAD)": "3.789000E+00",
    "Liquid Density (DENL)": "8.288828E-03 g-mol/cm^3",
    "Temperature of DENL (TDENL)": "2.930000E+02 K",
    "Heat of Vaporizaiton (HVAP)": "3.681900E+04 kJ/kg-mol",
    "Temperature of HVAP (THVAP)": "4.175000E+02 K",
    "Surface Tension (SRF)": "3.031000E+01 dyn/cm",
    "Temperature of SRF (TSRF)": "2.932000E+02 K",
    "Dielectric Constant (DIEL)": NaN,
    "Temperature of DIEL (TDIEL)": NaN,
    "Refractive Index (RFI)": "1.502950E+00",
    "Temperature of RFI (TRFI)": "2.981500E+02 K",
    "Lower Flammability Limit(FLL)": "1.100000E+00 % in Air",
    "Upper Flammability Limit(FLU)": "7.000000E+00 % in Air",
    "Flash Point (Open Cup Method)": "2.903722E+02 K",
    "Flash Point (Closed Cup Method)": "2.970389E+02 K",
    "Autoignition Temperature (AIGT)": "7.381500E+02 K",
    "NFPA Rating (Health)": "2",
    "NFPA Rating (Fire)": "3",
    "NFPA Rating (Safety)": NaN,
    "Class": "Aromatics",
    "Subclass": "Alkyl Benzene",
    "SMILES": "CC1=CC=CC=C1C"
}