{
    "ID": "655",
    "Name": "M-XYLENE",
    "Synonyms": "1,3-DIMETHYLBENZENE, M-DIMETHYLBENZENE, M-XYLOL",
    "CAS No.": "108-38-3",
    "Formula": "C8H10",
    "Molecular Wt. (WT)": "1.06167E+02",
    "Normal Boiling Point Temp. (TB)": "4.12270E+02 K",
    "Freezing Point Temp. (TF)": "2.25300E+02 K",
    "Triple Point Temp. (TT)": NaN,
    "Triple Point Press. (PT)": NaN,
    "Critical Temperature. (TC)": "6.17000E+02 K",
    "Critical Pressure (PC)": "3.54100E+03 kPa",
    "Critical Volume (VC)": "3.75000E-01 m^3/kg-mol",
    "Critical Compressibility (ZC)": "2.58842E-01",
    "Accentric Factor (ACCF)": "3.25000E-01",
    "Vapor Pressure": {
        "Equation Name": "KDB Correlation Equation",
        "Equation": "ln(Pvp) = A*ln(T) + B/T + C + D*T^2 where Pvp in kPa, T in K",
        "Coefficient A": "-9.106679E+00",
        "Coefficient B": "-7.556611E+03",
        "Coefficient C": "7.686698E+01",
        "Coefficient D": "5.403634E-06",
        "Coefficient E": NaN,
        "Coefficient F": NaN,
        "Coefficient G": NaN,
        "T range, from": "225.30 K",
        "T range, to": "617.05 K"
    },
    "Heat Capacity (Ideal Gas)": {
        "Equation Name": "Polynomial Equation",
        "Equation": "Cp = A + B*T + C*T^2 + D*T^3 + E*T^4  where Cp in kJ/kg-mol , T in K",
        "Coefficient A": "-3.328856E+01",
        "Coefficient B": "6.353580E-01",
        "Coefficient C": "-3.678323E-04",
        "Coefficient D": "6.869453E-08",
        "Coefficient E": "7.498678E-12",
        "Coefficient F": NaN,
        "Coefficient G": NaN,
        "T range, from": NaN,
        "T range, to": NaN
    },
    "Heat Capacity (Liquid)": {
        "Equation Name": "Polynomial Equation",
        "Equation": "Cp = A + B*T + C*T^2 + D*T^3  where T in K and Cp in kJ/kg-mol.K",
        "Coefficient A": "-38.88107",
        "Coefficient B": "1.700852",
        "Coefficient C": "-4.757411E-03",
        "Coefficient D": "5.090563E-06",
        "Coefficient E": NaN,
        "Coefficient F": NaN,
        "Coefficient G": NaN,
        "T range, from": "225.25 K",
        "T range, to": "573.15 K"
    },
    "Viscosity (Gas, Low P)": {
        "Equation Name": "Polynomial Equation",
        "Equation": "VISG = A + B*T + C*T^2 where T in K and VISG in cP",
        "Coefficient A": "-.001527",
        "Coefficient B": "2.544E-05",
        "Coefficient C": "-4.343E-09",
        "Coefficient D": "0",
        "Coefficient E": NaN,
        "Coefficient F": NaN,
        "Coefficient G": NaN,
        "T range, from": "273.15 K",
        "T range, to": "1273.15 K"
    },
    "Viscosity (Liquid)": {
        "Equation Name": "Quasipolynomial Equation",
        "Equation": "ln (VISL) = A + B/T + C*T + D*T^2  where T in K and VISL in cP.",
        "Coefficient A": "-3.82",
        "Coefficient B": "1027",
        "Coefficient C": "-.000638",
        "Coefficient D": "4.52E-07",
        "Coefficient E": NaN,
        "Coefficient F": NaN,
        "Coefficient G": NaN,
        "T range, from": "226.15 K",
        "T range, to": "613.15 K"
    },
    "Themal Conductivity (Gas, Low P)": {
        "Equation Name": "Polynomial Equation",
        "Equation": "THG = A + B*T + C*T^2 + D*T^3  where T in K and THG in W/m.K",
        "Coefficient A": ".0132",
        "Coefficient B": "-4.196E-05",
        "Coefficient C": "1.662E-07",
        "Coefficient D": "-6.106E-11",
        "Coefficient E": NaN,
        "Coefficient F": NaN,
        "Coefficient G": NaN,
        "T range, from": "273 K",
        "T range, to": "1270 K"
    },
    "Themal Conductivity (Liquid)": {
        "Equation Name": "Polynomial Equation",
        "Equation": "THL = A + B*T + C*T^2 + D*T^3  where T in K and THL in W/m.K",
        "Coefficient A": ".1643",
        "Coefficient B": "-1.466E-05",
        "Coefficient C": "-2.387E-07",
        "Coefficient D": "0",
        "Coefficient E": NaN,
        "Coefficient F": NaN,
        "Coefficient G": NaN,
        "T range, from": "225 K",
        "T range, to": "603 K"
    },
    "Surface Tension": NaN,
    "Partial Molar Volume (VOLP)": "1.234700E-01 m^3/kg-mol",
    "Solubility Parameters (SOLP)": "1.803911E+04 (J/cm^3)^0.5",
    "SRK accentric factor (WSRK)": "3.270000E-01",
    "COSTALD Characteristic Volume (VSTAR)": "3.731000E-01 m^3/kg-mol",
    "Rackett parameter (ZRA)": "2.625000E-01",
    "Aniline Point (ANP)": NaN,
    "H(formation,ideal gas)at 25 C": "1.725000E+04 kJ/kg-mol",
    "G(formation,ideal gas) at 25 C": "1.189000E+05 kJ/kg-mol",
    "Heat of Combustion, Gross form (HCB1)": "4.551858E+06 kJ/kg-mol",
    "Heat of Combustion, Net form (HCB2)": "4.331779E+06 kJ/kg-mol",
    "Van der Waals Volume (VDWV)": NaN,
    "Van der Waals Area (VDWA)": NaN,
    "UNIQUAC Ri Parameter (RI)": "4.657800E+00",
    "UNIQUAC Qi Parameter (QI)": "3.536000E+00",
    "Dipole Moment (DM)": "3.000000E-01 debye",
    "Radius of Gyration (GYRAD)": "3.897000E+00",
    "Liquid Density (DENL)": "8.138122E-03 g-mol/cm^3",
    "Temperature of DENL (TDENL)": "2.930000E+02 K",
    "Heat of Vaporizaiton (HVAP)": "3.635900E+04 kJ/kg-mol",
    "Temperature of HVAP (THVAP)": "4.122000E+02 K",
    "Surface Tension (SRF)": "2.902000E+01 dyn/cm",
    "Temperature of SRF (TSRF)": "2.932000E+02 K",
    "Dielectric Constant (DIEL)": NaN,
    "Temperature of DIEL (TDIEL)": NaN,
    "Refractive Index (RFI)": "1.494640E+00",
    "Temperature of RFI (TRFI)": "2.981500E+02 K",
    "Lower Flammability Limit(FLL)": "1.100000E+00 % in Air",
    "Upper Flammability Limit(FLU)": "6.400000E+00 % in Air",
    "Flash Point (Open Cup Method)": "3.020389E+02 K",
    "Flash Point (Closed Cup Method)": NaN,
    "Autoignition Temperature (AIGT)": "8.031500E+02 K",
    "NFPA Rating (Health)": "2",
    "NFPA Rating (Fire)": "3",
    "NFPA Rating (Safety)": NaN,
    "Class": "Aromatics",
    "Subclass": "Alkyl Benzene",
    "SMILES": "CC1=CC(=CC=C1)C"
}