{
    "ID": "656",
    "Name": "P-XYLENE",
    "Synonyms": "1,4-DIMETHYLBENZENE, P-DIMETHYLBENZENE, P-XYLOL",
    "CAS No.": "106-42-3",
    "Formula": "C8H10",
    "Molecular Wt. (WT)": "1.06167E+02",
    "Normal Boiling Point Temp. (TB)": "4.11520E+02 K",
    "Freezing Point Temp. (TF)": "2.86300E+02 K",
    "Triple Point Temp. (TT)": NaN,
    "Triple Point Press. (PT)": NaN,
    "Critical Temperature. (TC)": "6.16200E+02 K",
    "Critical Pressure (PC)": "3.51100E+03 kPa",
    "Critical Volume (VC)": "3.78000E-01 m^3/kg-mol",
    "Critical Compressibility (ZC)": "2.59038E-01",
    "Accentric Factor (ACCF)": "3.20000E-01",
    "Vapor Pressure": {
        "Equation Name": "KDB Correlation Equation",
        "Equation": "ln(Pvp) = A*ln(T) + B/T + C + D*T^2 where Pvp in kPa, T in K",
        "Coefficient A": "-9.527348E+00",
        "Coefficient B": "-7.637951E+03",
        "Coefficient C": "7.955720E+01",
        "Coefficient D": "5.748969E-06",
        "Coefficient E": NaN,
        "Coefficient F": NaN,
        "Coefficient G": NaN,
        "T range, from": "286.41 K",
        "T range, to": "616.26 K"
    },
    "Heat Capacity (Ideal Gas)": {
        "Equation Name": "Polynomial Equation",
        "Equation": "Cp = A + B*T + C*T^2 + D*T^3 + E*T^4  where Cp in kJ/kg-mol , T in K",
        "Coefficient A": "-3.970393E+01",
        "Coefficient B": "6.733975E-01",
        "Coefficient C": "-4.316933E-04",
        "Coefficient D": "1.133026E-07",
        "Coefficient E": "-3.797517E-12",
        "Coefficient F": NaN,
        "Coefficient G": NaN,
        "T range, from": NaN,
        "T range, to": NaN
    },
    "Heat Capacity (Liquid)": {
        "Equation Name": "Polynomial Equation",
        "Equation": "Cp = A + B*T + C*T^2 + D*T^3  where T in K and Cp in kJ/kg-mol.K",
        "Coefficient A": "-374.4185",
        "Coefficient B": "3.980501",
        "Coefficient C": "-9.53259E-03",
        "Coefficient D": "8.19554E-06",
        "Coefficient E": NaN,
        "Coefficient F": NaN,
        "Coefficient G": NaN,
        "T range, from": "286.45 K",
        "T range, to": "598.15 K"
    },
    "Viscosity (Gas, Low P)": {
        "Equation Name": "Polynomial Equation",
        "Equation": "VISG = A + B*T + C*T^2 where T in K and VISG in cP",
        "Coefficient A": "-.00139",
        "Coefficient B": "2.557E-05",
        "Coefficient C": "-4.457E-09",
        "Coefficient D": "0",
        "Coefficient E": NaN,
        "Coefficient F": NaN,
        "Coefficient G": NaN,
        "T range, from": "273.15 K",
        "T range, to": "1273.15 K"
    },
    "Viscosity (Liquid)": {
        "Equation Name": "Quasipolynomial Equation",
        "Equation": "ln (VISL) = A + B/T + C*T + D*T^2  where T in K and VISL in cP.",
        "Coefficient A": "-7.79",
        "Coefficient B": "1580",
        "Coefficient C": ".00873",
        "Coefficient D": "-6.735E-06",
        "Coefficient E": NaN,
        "Coefficient F": NaN,
        "Coefficient G": NaN,
        "T range, from": "286.15 K",
        "T range, to": "613.15 K"
    },
    "Themal Conductivity (Gas, Low P)": {
        "Equation Name": "Polynomial Equation",
        "Equation": "THG = A + B*T + C*T^2 + D*T^3  where T in K and THG in W/m.K",
        "Coefficient A": "-.008178",
        "Coefficient B": ".0000389",
        "Coefficient C": "7.58E-08",
        "Coefficient D": "-2.902E-11",
        "Coefficient E": NaN,
        "Coefficient F": NaN,
        "Coefficient G": NaN,
        "T range, from": "273 K",
        "T range, to": "1270 K"
    },
    "Themal Conductivity (Liquid)": {
        "Equation Name": "Polynomial Equation",
        "Equation": "THL = A + B*T + C*T^2 + D*T^3  where T in K and THL in W/m.K",
        "Coefficient A": ".1487",
        "Coefficient B": "2.717E-05",
        "Coefficient C": "-2.822E-07",
        "Coefficient D": "0",
        "Coefficient E": NaN,
        "Coefficient F": NaN,
        "Coefficient G": NaN,
        "T range, from": "287 K",
        "T range, to": "609 K"
    },
    "Surface Tension": NaN,
    "Partial Molar Volume (VOLP)": "1.239300E-01 m^3/kg-mol",
    "Solubility Parameters (SOLP)": "1.793684E+04 (J/cm^3)^0.5",
    "SRK accentric factor (WSRK)": "3.216000E-01",
    "COSTALD Characteristic Volume (VSTAR)": "3.740000E-01 m^3/kg-mol",
    "Rackett parameter (ZRA)": "2.592000E-01",
    "Aniline Point (ANP)": NaN,
    "H(formation,ideal gas)at 25 C": "1.796000E+04 kJ/kg-mol",
    "G(formation,ideal gas) at 25 C": "1.212000E+05 kJ/kg-mol",
    "Heat of Combustion, Gross form (HCB1)": "4.552862E+06 kJ/kg-mol",
    "Heat of Combustion, Net form (HCB2)": "4.332784E+06 kJ/kg-mol",
    "Van der Waals Volume (VDWV)": NaN,
    "Van der Waals Area (VDWA)": NaN,
    "UNIQUAC Ri Parameter (RI)": "4.657800E+00",
    "UNIQUAC Qi Parameter (QI)": "3.536000E+00",
    "Dipole Moment (DM)": "1.000000E-01 debye",
    "Radius of Gyration (GYRAD)": "3.796000E+00",
    "Liquid Density (DENL)": "8.109865E-03 g-mol/cm^3",
    "Temperature of DENL (TDENL)": "2.930000E+02 K",
    "Heat of Vaporizaiton (HVAP)": "3.598200E+04 kJ/kg-mol",
    "Temperature of HVAP (THVAP)": "4.114000E+02 K",
    "Surface Tension (SRF)": "2.855000E+01 dyn/cm",
    "Temperature of SRF (TSRF)": "2.932000E+02 K",
    "Dielectric Constant (DIEL)": NaN,
    "Temperature of DIEL (TDIEL)": NaN,
    "Refractive Index (RFI)": "1.493250E+00",
    "Temperature of RFI (TRFI)": "2.981500E+02 K",
    "Lower Flammability Limit(FLL)": "1.100000E+00 % in Air",
    "Upper Flammability Limit(FLU)": "6.600000E+00 % in Air",
    "Flash Point (Open Cup Method)": "3.003722E+02 K",
    "Flash Point (Closed Cup Method)": NaN,
    "Autoignition Temperature (AIGT)": "7.387056E+02 K",
    "NFPA Rating (Health)": "2",
    "NFPA Rating (Fire)": "3",
    "NFPA Rating (Safety)": NaN,
    "Class": "Aromatics",
    "Subclass": "Alkyl Benzene",
    "SMILES": "CC1=CC=C(C=C1)C"
}