{
    "ID": "657",
    "Name": "N-PROPYLBENZENE",
    "Synonyms": "ISOCUMENE, 1-PHENYLPROPANE",
    "CAS No.": "103-65-1",
    "Formula": "C9H12",
    "Molecular Wt. (WT)": "1.20194E+02",
    "Normal Boiling Point Temp. (TB)": "4.32390E+02 K",
    "Freezing Point Temp. (TF)": "1.73590E+02 K",
    "Triple Point Temp. (TT)": NaN,
    "Triple Point Press. (PT)": NaN,
    "Critical Temperature. (TC)": "6.38350E+02 K",
    "Critical Pressure (PC)": "3.20000E+03 kPa",
    "Critical Volume (VC)": "4.40000E-01 m^3/kg-mol",
    "Critical Compressibility (ZC)": "2.65282E-01",
    "Accentric Factor (ACCF)": "3.44000E-01",
    "Vapor Pressure": {
        "Equation Name": "KDB Correlation Equation",
        "Equation": "ln(Pvp) = A*ln(T) + B/T + C + D*T^2 where Pvp in kPa, T in K",
        "Coefficient A": "-1.094494E+01",
        "Coefficient B": "-8.512487E+03",
        "Coefficient C": "8.957939E+01",
        "Coefficient D": "6.165323E-06",
        "Coefficient E": NaN,
        "Coefficient F": NaN,
        "Coefficient G": NaN,
        "T range, from": "173.67 K",
        "T range, to": "638.38 K"
    },
    "Heat Capacity (Ideal Gas)": {
        "Equation Name": "Polynomial Equation",
        "Equation": "Cp = A + B*T + C*T^2 + D*T^3 + E*T^4  where Cp in kJ/kg-mol , T in K",
        "Coefficient A": "3.680702E+01",
        "Coefficient B": "2.763493E-01",
        "Coefficient C": "6.191356E-04",
        "Coefficient D": "-8.697945E-07",
        "Coefficient E": "3.042065E-10",
        "Coefficient F": NaN,
        "Coefficient G": NaN,
        "T range, from": NaN,
        "T range, to": NaN
    },
    "Heat Capacity (Liquid)": NaN,
    "Viscosity (Gas, Low P)": NaN,
    "Viscosity (Liquid)": {
        "Equation Name": "Andrade Equation",
        "Equation": "ln (VISL) = A + B/ T  where T in K and VISL in cP.",
        "Coefficient A": "-4.297",
        "Coefficient B": "1215",
        "Coefficient C": "0",
        "Coefficient D": "0",
        "Coefficient E": NaN,
        "Coefficient F": NaN,
        "Coefficient G": NaN,
        "T range, from": "248.15 K",
        "T range, to": "433.15 K"
    },
    "Themal Conductivity (Gas, Low P)": NaN,
    "Themal Conductivity (Liquid)": NaN,
    "Surface Tension": NaN,
    "Partial Molar Volume (VOLP)": "1.394400E-01 m^3/kg-mol",
    "Solubility Parameters (SOLP)": "1.767093E+04 (J/cm^3)^0.5",
    "SRK accentric factor (WSRK)": "3.432000E-01",
    "COSTALD Characteristic Volume (VSTAR)": "4.298000E-01 m^3/kg-mol",
    "Rackett parameter (ZRA)": "2.599000E-01",
    "Aniline Point (ANP)": NaN,
    "H(formation,ideal gas)at 25 C": "7.830000E+03 kJ/kg-mol",
    "G(formation,ideal gas) at 25 C": "1.373000E+05 kJ/kg-mol",
    "Heat of Combustion, Gross form (HCB1)": "5.218243E+06 kJ/kg-mol",
    "Heat of Combustion, Net form (HCB2)": "4.954149E+06 kJ/kg-mol",
    "Van der Waals Volume (VDWV)": NaN,
    "Van der Waals Area (VDWA)": NaN,
    "UNIQUAC Ri Parameter (RI)": 5.2716,
    "UNIQUAC Qi Parameter (QI)": 4.048,
    "Dipole Moment (DM)": NaN,
    "Radius of Gyration (GYRAD)": NaN,
    "Liquid Density (DENL)": "7.171751E-03 g-mol/cm^3",
    "Temperature of DENL (TDENL)": "2.930000E+02 K",
    "Heat of Vaporizaiton (HVAP)": "3.824200E+04 kJ/kg-mol",
    "Temperature of HVAP (THVAP)": "4.302000E+02 K",
    "Surface Tension (SRF)": "2.898000E+01 dyn/cm",
    "Temperature of SRF (TSRF)": "2.932000E+02 K",
    "Dielectric Constant (DIEL)": NaN,
    "Temperature of DIEL (TDIEL)": NaN,
    "Refractive Index (RFI)": "1.489510E+00",
    "Temperature of RFI (TRFI)": "2.981500E+02 K",
    "Lower Flammability Limit(FLL)": NaN,
    "Upper Flammability Limit(FLU)": NaN,
    "Flash Point (Open Cup Method)": NaN,
    "Flash Point (Closed Cup Method)": NaN,
    "Autoignition Temperature (AIGT)": NaN,
    "NFPA Rating (Health)": 2.0,
    "NFPA Rating (Fire)": 3.0,
    "NFPA Rating (Safety)": NaN,
    "Class": "Aromatics",
    "Subclass": "Alkyl Benzene",
    "SMILES": "CCCC1=CC=CC=C1"
}