{
    "ID": "658",
    "Name": "CUMENE",
    "Synonyms": "ISOPROPYLBENZENE, (1-METHYLETHYL)BENZENE, 2-PHENYLPROPANE",
    "CAS No.": "98-82-8",
    "Formula": "C9H12",
    "Molecular Wt. (WT)": "1.20194E+02",
    "Normal Boiling Point Temp. (TB)": "4.25560E+02 K",
    "Freezing Point Temp. (TF)": "1.77140E+02 K",
    "Triple Point Temp. (TT)": NaN,
    "Triple Point Press. (PT)": NaN,
    "Critical Temperature. (TC)": "6.31000E+02 K",
    "Critical Pressure (PC)": "3.20900E+03 kPa",
    "Critical Volume (VC)": "4.34700E-01 m^3/kg-mol",
    "Critical Compressibility (ZC)": "2.65885E-01",
    "Accentric Factor (ACCF)": "3.26000E-01",
    "Vapor Pressure": {
        "Equation Name": "KDB Correlation Equation",
        "Equation": "ln(Pvp) = A*ln(T) + B/T + C + D*T^2 where Pvp in kPa, T in K",
        "Coefficient A": "-1.291508E+01",
        "Coefficient B": "-8.969893E+03",
        "Coefficient C": "1.024798E+02",
        "Coefficient D": "7.670896E-06",
        "Coefficient E": NaN,
        "Coefficient F": NaN,
        "Coefficient G": NaN,
        "T range, from": "177.14 K",
        "T range, to": "631.15 K"
    },
    "Heat Capacity (Ideal Gas)": {
        "Equation Name": "Polynomial Equation",
        "Equation": "Cp = A + B*T + C*T^2 + D*T^3 + E*T^4  where Cp in kJ/kg-mol , T in K",
        "Coefficient A": "-4.265796E+01",
        "Coefficient B": "8.017381E-01",
        "Coefficient C": "-5.443525E-04",
        "Coefficient D": "1.643464E-07",
        "Coefficient E": "-1.345848E-11",
        "Coefficient F": NaN,
        "Coefficient G": NaN,
        "T range, from": NaN,
        "T range, to": NaN
    },
    "Heat Capacity (Liquid)": {
        "Equation Name": "Polynomial Equation",
        "Equation": "Cp = A + B*T + C*T^2 + D*T^3  where T in K and Cp in kJ/kg-mol.K",
        "Coefficient A": "60.39719",
        "Coefficient B": "1.235603",
        "Coefficient C": "-3.480005E-03",
        "Coefficient D": "3.845104E-06",
        "Coefficient E": NaN,
        "Coefficient F": NaN,
        "Coefficient G": NaN,
        "T range, from": "177.15 K",
        "T range, to": "613.15 K"
    },
    "Viscosity (Gas, Low P)": {
        "Equation Name": "Polynomial Equation",
        "Equation": "VISG = A + B*T + C*T^2 where T in K and VISG in cP",
        "Coefficient A": "-.001385",
        "Coefficient B": "2.567E-05",
        "Coefficient C": "-4.33E-09",
        "Coefficient D": "0",
        "Coefficient E": NaN,
        "Coefficient F": NaN,
        "Coefficient G": NaN,
        "T range, from": "273.15 K",
        "T range, to": "1273.15 K"
    },
    "Viscosity (Liquid)": {
        "Equation Name": "Quasipolynomial Equation",
        "Equation": "ln (VISL) = A + B/T + C*T + D*T^2  where T in K and VISL in cP.",
        "Coefficient A": "-8.292",
        "Coefficient B": "1700",
        "Coefficient C": ".01003",
        "Coefficient D": "-7.829E-06",
        "Coefficient E": NaN,
        "Coefficient F": NaN,
        "Coefficient G": NaN,
        "T range, from": "253.15 K",
        "T range, to": "633.15 K"
    },
    "Themal Conductivity (Gas, Low P)": {
        "Equation Name": "Polynomial Equation",
        "Equation": "THG = A + B*T + C*T^2 + D*T^3  where T in K and THG in W/m.K",
        "Coefficient A": "-.00559",
        "Coefficient B": "2.253E-05",
        "Coefficient C": "1.813E-07",
        "Coefficient D": "-7.504E-11",
        "Coefficient E": NaN,
        "Coefficient F": NaN,
        "Coefficient G": NaN,
        "T range, from": "273 K",
        "T range, to": "1270 K"
    },
    "Themal Conductivity (Liquid)": {
        "Equation Name": "Polynomial Equation",
        "Equation": "THL = A + B*T + C*T^2 + D*T^3  where T in K and THL in W/m.K",
        "Coefficient A": ".1973",
        "Coefficient B": "-.0002421",
        "Coefficient C": "2.052E-08",
        "Coefficient D": "0",
        "Coefficient E": NaN,
        "Coefficient F": NaN,
        "Coefficient G": NaN,
        "T range, from": "180 K",
        "T range, to": "578 K"
    },
    "Surface Tension": NaN,
    "Partial Molar Volume (VOLP)": "1.401700E-01 m^3/kg-mol",
    "Solubility Parameters (SOLP)": "1.744592E+04 (J/cm^3)^0.5",
    "SRK accentric factor (WSRK)": "3.277000E-01",
    "COSTALD Characteristic Volume (VSTAR)": "4.271000E-01 m^3/kg-mol",
    "Rackett parameter (ZRA)": "2.617000E-01",
    "Aniline Point (ANP)": NaN,
    "H(formation,ideal gas)at 25 C": "3.940000E+03 kJ/kg-mol",
    "G(formation,ideal gas) at 25 C": "1.371000E+05 kJ/kg-mol",
    "Heat of Combustion, Gross form (HCB1)": "5.215440E+06 kJ/kg-mol",
    "Heat of Combustion, Net form (HCB2)": "4.951346E+06 kJ/kg-mol",
    "Van der Waals Volume (VDWV)": NaN,
    "Van der Waals Area (VDWA)": NaN,
    "UNIQUAC Ri Parameter (RI)": 5.2708,
    "UNIQUAC Qi Parameter (QI)": 4.044,
    "Dipole Moment (DM)": NaN,
    "Radius of Gyration (GYRAD)": NaN,
    "Liquid Density (DENL)": "7.171751E-03 g-mol/cm^3",
    "Temperature of DENL (TDENL)": "2.930000E+02 K",
    "Heat of Vaporizaiton (HVAP)": NaN,
    "Temperature of HVAP (THVAP)": NaN,
    "Surface Tension (SRF)": "2.821000E+01 dyn/cm",
    "Temperature of SRF (TSRF)": "2.932000E+02 K",
    "Dielectric Constant (DIEL)": NaN,
    "Temperature of DIEL (TDIEL)": NaN,
    "Refractive Index (RFI)": "1.488900E+00",
    "Temperature of RFI (TRFI)": "2.981500E+02 K",
    "Lower Flammability Limit(FLL)": "9.000000E-01 % in Air",
    "Upper Flammability Limit(FLU)": "6.500000E+00 % in Air",
    "Flash Point (Open Cup Method)": "3.170389E+02 K",
    "Flash Point (Closed Cup Method)": NaN,
    "Autoignition Temperature (AIGT)": "6.981500E+02 K",
    "NFPA Rating (Health)": NaN,
    "NFPA Rating (Fire)": "2",
    "NFPA Rating (Safety)": NaN,
    "Class": "Aromatics",
    "Subclass": "Alkyl Benzene",
    "SMILES": "CC(C)C1=CC=CC=C1"
}