{
    "ID": "659",
    "Name": "O-ETHYLTOLUENE",
    "Synonyms": "1-METHYL-2-ETHYLBENZENE, 1-ETHYL-2-METHYLBENZENE, O-ETHYLMETHYLBENZENE",
    "CAS No.": "611-14-3",
    "Formula": "C9H12",
    "Molecular Wt. (WT)": "1.20194E+02",
    "Normal Boiling Point Temp. (TB)": "4.38300E+02 K",
    "Freezing Point Temp. (TF)": "1.92300E+02 K",
    "Triple Point Temp. (TT)": NaN,
    "Triple Point Press. (PT)": NaN,
    "Critical Temperature. (TC)": "6.51000E+02 K",
    "Critical Pressure (PC)": "3.04000E+03 kPa",
    "Critical Volume (VC)": "4.60000E-01 m^3/kg-mol",
    "Critical Compressibility (ZC)": "2.58353E-01",
    "Accentric Factor (ACCF)": "2.94000E-01",
    "Vapor Pressure": {
        "Equation Name": "KDB Correlation Equation",
        "Equation": "ln(Pvp) = A*ln(T) + B/T + C + D*T^2 where Pvp in kPa, T in K",
        "Coefficient A": "-6.787544E+00",
        "Coefficient B": "-7.525365E+03",
        "Coefficient C": "6.267555E+01",
        "Coefficient D": "2.056152E-06",
        "Coefficient E": NaN,
        "Coefficient F": NaN,
        "Coefficient G": NaN,
        "T range, from": "192.35 K",
        "T range, to": "651.15 K"
    },
    "Heat Capacity (Ideal Gas)": {
        "Equation Name": "Polynomial Equation",
        "Equation": "Cp = A + B*T + C*T^2 + D*T^3 + E*T^4  where Cp in kJ/kg-mol , T in K",
        "Coefficient A": "-2.222219E+01",
        "Coefficient B": "7.313396E-01",
        "Coefficient C": "-4.710808E-04",
        "Coefficient D": "1.362559E-07",
        "Coefficient E": "-1.058897E-11",
        "Coefficient F": NaN,
        "Coefficient G": NaN,
        "T range, from": NaN,
        "T range, to": NaN
    },
    "Heat Capacity (Liquid)": NaN,
    "Viscosity (Gas, Low P)": NaN,
    "Viscosity (Liquid)": NaN,
    "Themal Conductivity (Gas, Low P)": NaN,
    "Themal Conductivity (Liquid)": NaN,
    "Surface Tension": NaN,
    "Partial Molar Volume (VOLP)": NaN,
    "Solubility Parameters (SOLP)": "1.474588E+04 (J/cm^3)^0.5",
    "SRK accentric factor (WSRK)": NaN,
    "COSTALD Characteristic Volume (VSTAR)": NaN,
    "Rackett parameter (ZRA)": NaN,
    "Aniline Point (ANP)": NaN,
    "H(formation,ideal gas)at 25 C": "1.210000E+03 kJ/kg-mol",
    "G(formation,ideal gas) at 25 C": "1.312000E+05 kJ/kg-mol",
    "Heat of Combustion, Gross form (HCB1)": "5.210168E+06 kJ/kg-mol",
    "Heat of Combustion, Net form (HCB2)": "4.946074E+06 kJ/kg-mol",
    "Van der Waals Volume (VDWV)": NaN,
    "Van der Waals Area (VDWA)": NaN,
    "UNIQUAC Ri Parameter (RI)": NaN,
    "UNIQUAC Qi Parameter (QI)": NaN,
    "Dipole Moment (DM)": NaN,
    "Radius of Gyration (GYRAD)": NaN,
    "Liquid Density (DENL)": "7.329829E-03 g-mol/cm^3",
    "Temperature of DENL (TDENL)": "2.930000E+02 K",
    "Heat of Vaporizaiton (HVAP)": NaN,
    "Temperature of HVAP (THVAP)": NaN,
    "Surface Tension (SRF)": NaN,
    "Temperature of SRF (TSRF)": NaN,
    "Dielectric Constant (DIEL)": NaN,
    "Temperature of DIEL (TDIEL)": NaN,
    "Refractive Index (RFI)": "1.502080E+00",
    "Temperature of RFI (TRFI)": "2.981500E+02 K",
    "Lower Flammability Limit(FLL)": NaN,
    "Upper Flammability Limit(FLU)": NaN,
    "Flash Point (Open Cup Method)": NaN,
    "Flash Point (Closed Cup Method)": NaN,
    "Autoignition Temperature (AIGT)": NaN,
    "NFPA Rating (Health)": NaN,
    "NFPA Rating (Fire)": 2.0,
    "NFPA Rating (Safety)": NaN,
    "Class": "Aromatics",
    "Subclass": "Alkyl Benzene",
    "SMILES": "CCC1=CC=CC=C1C"
}