{
    "ID": "660",
    "Name": "M-ETHYLTOLUENE",
    "Synonyms": "1-METHYL-3-ETHYLBENZENE, 1-ETHYL-3-METHYLBENZENE, M-ETHYLMETHYLBENZENE",
    "CAS No.": "620-14-4",
    "Formula": "C9H12",
    "Molecular Wt. (WT)": "1.20194E+02",
    "Normal Boiling Point Temp. (TB)": "4.34500E+02 K",
    "Freezing Point Temp. (TF)": "1.77600E+02 K",
    "Triple Point Temp. (TT)": NaN,
    "Triple Point Press. (PT)": NaN,
    "Critical Temperature. (TC)": "6.37000E+02 K",
    "Critical Pressure (PC)": "2.84000E+03 kPa",
    "Critical Volume (VC)": "4.90000E-01 m^3/kg-mol",
    "Critical Compressibility (ZC)": "2.62747E-01",
    "Accentric Factor (ACCF)": "3.60000E-01",
    "Vapor Pressure": {
        "Equation Name": "KDB Correlation Equation",
        "Equation": "ln(Pvp) = A*ln(T) + B/T + C + D*T^2 where Pvp in kPa, T in K",
        "Coefficient A": "-8.767979E+00",
        "Coefficient B": "-8.016849E+03",
        "Coefficient C": "7.560075E+01",
        "Coefficient D": "3.837089E-06",
        "Coefficient E": NaN,
        "Coefficient F": NaN,
        "Coefficient G": NaN,
        "T range, from": "177.61 K",
        "T range, to": "637.15 K"
    },
    "Heat Capacity (Ideal Gas)": {
        "Equation Name": "Polynomial Equation",
        "Equation": "Cp = A + B*T + C*T^2 + D*T^3 + E*T^4  where Cp in kJ/kg-mol , T in K",
        "Coefficient A": "-1.857888E+01",
        "Coefficient B": "6.594014E-01",
        "Coefficient C": "-2.755757E-04",
        "Coefficient D": "-5.203128E-08",
        "Coefficient E": "4.980965E-11",
        "Coefficient F": NaN,
        "Coefficient G": NaN,
        "T range, from": NaN,
        "T range, to": NaN
    },
    "Heat Capacity (Liquid)": NaN,
    "Viscosity (Gas, Low P)": NaN,
    "Viscosity (Liquid)": NaN,
    "Themal Conductivity (Gas, Low P)": NaN,
    "Themal Conductivity (Liquid)": NaN,
    "Surface Tension": NaN,
    "Partial Molar Volume (VOLP)": NaN,
    "Solubility Parameters (SOLP)": "1.783456E+04 (J/cm^3)^0.5",
    "SRK accentric factor (WSRK)": NaN,
    "COSTALD Characteristic Volume (VSTAR)": NaN,
    "Rackett parameter (ZRA)": NaN,
    "Aniline Point (ANP)": NaN,
    "H(formation,ideal gas)at 25 C": "-1.930000E+03 kJ/kg-mol",
    "G(formation,ideal gas) at 25 C": "1.265000E+05 kJ/kg-mol",
    "Heat of Combustion, Gross form (HCB1)": "5.207867E+06 kJ/kg-mol",
    "Heat of Combustion, Net form (HCB2)": "4.943773E+06 kJ/kg-mol",
    "Van der Waals Volume (VDWV)": NaN,
    "Van der Waals Area (VDWA)": NaN,
    "UNIQUAC Ri Parameter (RI)": NaN,
    "UNIQUAC Qi Parameter (QI)": NaN,
    "Dipole Moment (DM)": NaN,
    "Radius of Gyration (GYRAD)": NaN,
    "Liquid Density (DENL)": "7.196710E-03 g-mol/cm^3",
    "Temperature of DENL (TDENL)": "2.930000E+02 K",
    "Heat of Vaporizaiton (HVAP)": NaN,
    "Temperature of HVAP (THVAP)": NaN,
    "Surface Tension (SRF)": NaN,
    "Temperature of SRF (TSRF)": NaN,
    "Dielectric Constant (DIEL)": NaN,
    "Temperature of DIEL (TDIEL)": NaN,
    "Refractive Index (RFI)": "1.494060E+00",
    "Temperature of RFI (TRFI)": "2.981500E+02 K",
    "Lower Flammability Limit(FLL)": NaN,
    "Upper Flammability Limit(FLU)": NaN,
    "Flash Point (Open Cup Method)": NaN,
    "Flash Point (Closed Cup Method)": NaN,
    "Autoignition Temperature (AIGT)": NaN,
    "NFPA Rating (Health)": NaN,
    "NFPA Rating (Fire)": 2.0,
    "NFPA Rating (Safety)": NaN,
    "Class": "Aromatics",
    "Subclass": "Alkyl Benzene",
    "SMILES": "CCC1=CC=CC(=C1)C"
}