{
    "ID": "662",
    "Name": "1,2,3-TRIMETHYLBENZENE",
    "Synonyms": "HEMIMELLITENE",
    "CAS No.": "526-73-8",
    "Formula": "C9H12",
    "Molecular Wt. (WT)": "1.20194E+02",
    "Normal Boiling Point Temp. (TB)": "4.49270E+02 K",
    "Freezing Point Temp. (TF)": "2.47700E+02 K",
    "Triple Point Temp. (TT)": NaN,
    "Triple Point Press. (PT)": NaN,
    "Critical Temperature. (TC)": "6.64500E+02 K",
    "Critical Pressure (PC)": "3.45400E+03 kPa",
    "Critical Volume (VC)": NaN,
    "Critical Compressibility (ZC)": NaN,
    "Accentric Factor (ACCF)": "3.66000E-01",
    "Vapor Pressure": {
        "Equation Name": "KDB Correlation Equation",
        "Equation": "ln(Pvp) = A*ln(T) + B/T + C + D*T^2 where Pvp in kPa, T in K",
        "Coefficient A": "-6.535160E+00",
        "Coefficient B": "-7.501482E+03",
        "Coefficient C": "6.066329E+01",
        "Coefficient D": "2.767763E-06",
        "Coefficient E": NaN,
        "Coefficient F": NaN,
        "Coefficient G": NaN,
        "T range, from": "247.79 K",
        "T range, to": "664.53 K"
    },
    "Heat Capacity (Ideal Gas)": {
        "Equation Name": "Polynomial Equation",
        "Equation": "Cp = A + B*T + C*T^2 + D*T^3 + E*T^4  where Cp in kJ/kg-mol , T in K",
        "Coefficient A": "-1.723981E+01",
        "Coefficient B": "6.806604E-01",
        "Coefficient C": "-3.421805E-04",
        "Coefficient D": "1.483002E-08",
        "Coefficient E": "2.786599E-11",
        "Coefficient F": NaN,
        "Coefficient G": NaN,
        "T range, from": NaN,
        "T range, to": NaN
    },
    "Heat Capacity (Liquid)": NaN,
    "Viscosity (Gas, Low P)": NaN,
    "Viscosity (Liquid)": NaN,
    "Themal Conductivity (Gas, Low P)": NaN,
    "Themal Conductivity (Liquid)": NaN,
    "Surface Tension": NaN,
    "Partial Molar Volume (VOLP)": "1.343900E-01 m^3/kg-mol",
    "Solubility Parameters (SOLP)": "1.857094E+04 (J/cm^3)^0.5",
    "SRK accentric factor (WSRK)": "3.642000E-01",
    "COSTALD Characteristic Volume (VSTAR)": "4.183000E-01 m^3/kg-mol",
    "Rackett parameter (ZRA)": NaN,
    "Aniline Point (ANP)": NaN,
    "H(formation,ideal gas)at 25 C": "-9.590000E+03 kJ/kg-mol",
    "G(formation,ideal gas) at 25 C": "1.246000E+05 kJ/kg-mol",
    "Heat of Combustion, Gross form (HCB1)": "5.198034E+06 kJ/kg-mol",
    "Heat of Combustion, Net form (HCB2)": "4.933940E+06 kJ/kg-mol",
    "Van der Waals Volume (VDWV)": NaN,
    "Van der Waals Area (VDWA)": NaN,
    "UNIQUAC Ri Parameter (RI)": 5.3928,
    "UNIQUAC Qi Parameter (QI)": 4.104,
    "Dipole Moment (DM)": NaN,
    "Radius of Gyration (GYRAD)": NaN,
    "Liquid Density (DENL)": "7.437987E-03 g-mol/cm^3",
    "Temperature of DENL (TDENL)": "2.930000E+02 K",
    "Heat of Vaporizaiton (HVAP)": "4.004100E+04 kJ/kg-mol",
    "Temperature of HVAP (THVAP)": "4.493000E+02 K",
    "Surface Tension (SRF)": "2.883000E+01 dyn/cm",
    "Temperature of SRF (TSRF)": "2.932000E+02 K",
    "Dielectric Constant (DIEL)": NaN,
    "Temperature of DIEL (TDIEL)": NaN,
    "Refractive Index (RFI)": "1.511500E+00",
    "Temperature of RFI (TRFI)": "2.981500E+02 K",
    "Lower Flammability Limit(FLL)": NaN,
    "Upper Flammability Limit(FLU)": NaN,
    "Flash Point (Open Cup Method)": NaN,
    "Flash Point (Closed Cup Method)": NaN,
    "Autoignition Temperature (AIGT)": NaN,
    "NFPA Rating (Health)": NaN,
    "NFPA Rating (Fire)": 2.0,
    "NFPA Rating (Safety)": NaN,
    "Class": "Aromatics",
    "Subclass": "Alkyl Benzene",
    "SMILES": "CC1=C(C(=CC=C1)C)C"
}