{
    "ID": "663",
    "Name": "1,2,4-TRIMETHYLBENZENE",
    "Synonyms": "AS-TRIMETHYBENZENE, PSEUDOCUMENE",
    "CAS No.": "95-63-6",
    "Formula": "C9H12",
    "Molecular Wt. (WT)": "1.20194E+02",
    "Normal Boiling Point Temp. (TB)": "4.42530E+02 K",
    "Freezing Point Temp. (TF)": "2.29300E+02 K",
    "Triple Point Temp. (TT)": NaN,
    "Triple Point Press. (PT)": NaN,
    "Critical Temperature. (TC)": "6.49100E+02 K",
    "Critical Pressure (PC)": "3.23200E+03 kPa",
    "Critical Volume (VC)": "4.35000E-01 m^3/kg-mol",
    "Critical Compressibility (ZC)": "2.60503E-01",
    "Accentric Factor (ACCF)": "3.76000E-01",
    "Vapor Pressure": {
        "Equation Name": "KDB Correlation Equation",
        "Equation": "ln(Pvp) = A*ln(T) + B/T + C + D*T^2 where Pvp in kPa, T in K",
        "Coefficient A": "-6.693535E+00",
        "Coefficient B": "-7.427754E+03",
        "Coefficient C": "6.159311E+01",
        "Coefficient D": "2.969383E-06",
        "Coefficient E": NaN,
        "Coefficient F": NaN,
        "Coefficient G": NaN,
        "T range, from": "229.38 K",
        "T range, to": "649.13 K"
    },
    "Heat Capacity (Ideal Gas)": {
        "Equation Name": "Polynomial Equation",
        "Equation": "Cp = A + B*T + C*T^2 + D*T^3 + E*T^4  where Cp in kJ/kg-mol , T in K",
        "Coefficient A": "4.301474E+01",
        "Coefficient B": "2.165106E-01",
        "Coefficient C": "7.393929E-04",
        "Coefficient D": "-9.665894E-07",
        "Coefficient E": "3.325234E-10",
        "Coefficient F": NaN,
        "Coefficient G": NaN,
        "T range, from": NaN,
        "T range, to": NaN
    },
    "Heat Capacity (Liquid)": NaN,
    "Viscosity (Gas, Low P)": NaN,
    "Viscosity (Liquid)": {
        "Equation Name": "Andrade Equation",
        "Equation": "ln (VISL) = A + B/ T  where T in K and VISL in cP.",
        "Coefficient A": "-6.749",
        "Coefficient B": "2010",
        "Coefficient C": "0",
        "Coefficient D": "0",
        "Coefficient E": NaN,
        "Coefficient F": NaN,
        "Coefficient G": NaN,
        "T range, from": "298.15 K",
        "T range, to": "313.15 K"
    },
    "Themal Conductivity (Gas, Low P)": NaN,
    "Themal Conductivity (Liquid)": NaN,
    "Surface Tension": NaN,
    "Partial Molar Volume (VOLP)": "1.372500E-01 m^3/kg-mol",
    "Solubility Parameters (SOLP)": "1.816184E+04 (J/cm^3)^0.5",
    "SRK accentric factor (WSRK)": "3.745000E-01",
    "COSTALD Characteristic Volume (VSTAR)": "4.279000E-01 m^3/kg-mol",
    "Rackett parameter (ZRA)": NaN,
    "Aniline Point (ANP)": NaN,
    "H(formation,ideal gas)at 25 C": "-1.394000E+04 kJ/kg-mol",
    "G(formation,ideal gas) at 25 C": "1.170000E+05 kJ/kg-mol",
    "Heat of Combustion, Gross form (HCB1)": "5.194771E+06 kJ/kg-mol",
    "Heat of Combustion, Net form (HCB2)": "4.930677E+06 kJ/kg-mol",
    "Van der Waals Volume (VDWV)": NaN,
    "Van der Waals Area (VDWA)": NaN,
    "UNIQUAC Ri Parameter (RI)": 5.3928,
    "UNIQUAC Qi Parameter (QI)": 4.104,
    "Dipole Moment (DM)": NaN,
    "Radius of Gyration (GYRAD)": NaN,
    "Liquid Density (DENL)": "7.321509E-03 g-mol/cm^3",
    "Temperature of DENL (TDENL)": "2.890000E+02 K",
    "Heat of Vaporizaiton (HVAP)": "3.924600E+04 kJ/kg-mol",
    "Temperature of HVAP (THVAP)": "4.423000E+02 K",
    "Surface Tension (SRF)": "2.971000E+01 dyn/cm",
    "Temperature of SRF (TSRF)": "2.932000E+02 K",
    "Dielectric Constant (DIEL)": NaN,
    "Temperature of DIEL (TDIEL)": NaN,
    "Refractive Index (RFI)": "1.502370E+00",
    "Temperature of RFI (TRFI)": "2.981500E+02 K",
    "Lower Flammability Limit(FLL)": NaN,
    "Upper Flammability Limit(FLU)": NaN,
    "Flash Point (Open Cup Method)": NaN,
    "Flash Point (Closed Cup Method)": NaN,
    "Autoignition Temperature (AIGT)": NaN,
    "NFPA Rating (Health)": NaN,
    "NFPA Rating (Fire)": NaN,
    "NFPA Rating (Safety)": NaN,
    "Class": "Aromatics",
    "Subclass": "Alkyl Benzene",
    "SMILES": "CC1=CC(=C(C=C1)C)C"
}