{
    "ID": "664",
    "Name": "1,3,5-TRIMETHYLBENZENE",
    "Synonyms": "MESITYLENE, S-TRIMETHYLBENEZENE, FLEET-X",
    "CAS No.": "108-67-8",
    "Formula": "C9H12",
    "Molecular Wt. (WT)": "1.20194E+02",
    "Normal Boiling Point Temp. (TB)": "4.37890E+02 K",
    "Freezing Point Temp. (TF)": "2.28400E+02 K",
    "Triple Point Temp. (TT)": NaN,
    "Triple Point Press. (PT)": NaN,
    "Critical Temperature. (TC)": "6.37300E+02 K",
    "Critical Pressure (PC)": "3.12700E+03 kPa",
    "Critical Volume (VC)": NaN,
    "Critical Compressibility (ZC)": NaN,
    "Accentric Factor (ACCF)": "3.99000E-01",
    "Vapor Pressure": {
        "Equation Name": "KDB Correlation Equation",
        "Equation": "ln(Pvp) = A*ln(T) + B/T + C + D*T^2 where Pvp in kPa, T in K",
        "Coefficient A": "-1.034285E+01",
        "Coefficient B": "-8.512200E+03",
        "Coefficient C": "8.586653E+01",
        "Coefficient D": "5.709523E-06",
        "Coefficient E": NaN,
        "Coefficient F": NaN,
        "Coefficient G": NaN,
        "T range, from": "228.46 K",
        "T range, to": "637.38 K"
    },
    "Heat Capacity (Ideal Gas)": {
        "Equation Name": "Polynomial Equation",
        "Equation": "Cp = A + B*T + C*T^2 + D*T^3 + E*T^4  where Cp in kJ/kg-mol , T in K",
        "Coefficient A": "8.984489E+00",
        "Coefficient B": "4.664940E-01",
        "Coefficient C": "1.003743E-04",
        "Coefficient D": "-3.455679E-07",
        "Coefficient E": "1.304364E-10",
        "Coefficient F": NaN,
        "Coefficient G": NaN,
        "T range, from": NaN,
        "T range, to": NaN
    },
    "Heat Capacity (Liquid)": NaN,
    "Viscosity (Gas, Low P)": NaN,
    "Viscosity (Liquid)": NaN,
    "Themal Conductivity (Gas, Low P)": NaN,
    "Themal Conductivity (Liquid)": NaN,
    "Surface Tension": NaN,
    "Partial Molar Volume (VOLP)": "1.389300E-01 m^3/kg-mol",
    "Solubility Parameters (SOLP)": "1.795729E+04 (J/cm^3)^0.5",
    "SRK accentric factor (WSRK)": "3.974000E-01",
    "COSTALD Characteristic Volume (VSTAR)": "4.337000E-01 m^3/kg-mol",
    "Rackett parameter (ZRA)": NaN,
    "Aniline Point (ANP)": NaN,
    "H(formation,ideal gas)at 25 C": "-1.608000E+04 kJ/kg-mol",
    "G(formation,ideal gas) at 25 C": "1.180000E+05 kJ/kg-mol",
    "Heat of Combustion, Gross form (HCB1)": "5.193139E+06 kJ/kg-mol",
    "Heat of Combustion, Net form (HCB2)": "4.929045E+06 kJ/kg-mol",
    "Van der Waals Volume (VDWV)": NaN,
    "Van der Waals Area (VDWA)": NaN,
    "UNIQUAC Ri Parameter (RI)": "5.392800E+00",
    "UNIQUAC Qi Parameter (QI)": "4.104000E+00",
    "Dipole Moment (DM)": "1.000000E-01 debye",
    "Radius of Gyration (GYRAD)": NaN,
    "Liquid Density (DENL)": "7.196710E-03 g-mol/cm^3",
    "Temperature of DENL (TDENL)": "2.930000E+02 K",
    "Heat of Vaporizaiton (HVAP)": NaN,
    "Temperature of HVAP (THVAP)": NaN,
    "Surface Tension (SRF)": NaN,
    "Temperature of SRF (TSRF)": NaN,
    "Dielectric Constant (DIEL)": NaN,
    "Temperature of DIEL (TDIEL)": NaN,
    "Refractive Index (RFI)": "1.496840E+00",
    "Temperature of RFI (TRFI)": "2.981500E+02 K",
    "Lower Flammability Limit(FLL)": NaN,
    "Upper Flammability Limit(FLU)": NaN,
    "Flash Point (Open Cup Method)": NaN,
    "Flash Point (Closed Cup Method)": NaN,
    "Autoignition Temperature (AIGT)": NaN,
    "NFPA Rating (Health)": NaN,
    "NFPA Rating (Fire)": NaN,
    "NFPA Rating (Safety)": NaN,
    "Class": "Aromatics",
    "Subclass": "Alkyl Benzene",
    "SMILES": "CC1=CC(=CC(=C1)C)C"
}