{
    "ID": "665",
    "Name": "N-BUTYLBENZENE",
    "Synonyms": "1-PHENYLBUTANE",
    "CAS No.": "104-51-8",
    "Formula": "C10H14",
    "Molecular Wt. (WT)": "1.34221E+02",
    "Normal Boiling Point Temp. (TB)": "4.56460E+02 K",
    "Freezing Point Temp. (TF)": "1.85200E+02 K",
    "Triple Point Temp. (TT)": NaN,
    "Triple Point Press. (PT)": NaN,
    "Critical Temperature. (TC)": "6.60500E+02 K",
    "Critical Pressure (PC)": "2.89000E+03 kPa",
    "Critical Volume (VC)": "4.97000E-01 m^3/kg-mol",
    "Critical Compressibility (ZC)": "2.61544E-01",
    "Accentric Factor (ACCF)": "3.93000E-01",
    "Vapor Pressure": {
        "Equation Name": "KDB Correlation Equation",
        "Equation": "ln(Pvp) = A*ln(T) + B/T + C + D*T^2 where Pvp in kPa, T in K",
        "Coefficient A": "-1.425732E+01",
        "Coefficient B": "-1.010440E+04",
        "Coefficient C": "1.124329E+02",
        "Coefficient D": "7.811344E-06",
        "Coefficient E": NaN,
        "Coefficient F": NaN,
        "Coefficient G": NaN,
        "T range, from": "185.30 K",
        "T range, to": "660.55 K"
    },
    "Heat Capacity (Ideal Gas)": {
        "Equation Name": "Polynomial Equation",
        "Equation": "Cp = A + B*T + C*T^2 + D*T^3 + E*T^4  where Cp in kJ/kg-mol , T in K",
        "Coefficient A": "-5.192610E+01",
        "Coefficient B": "9.208447E-01",
        "Coefficient C": "-6.170884E-04",
        "Coefficient D": "1.841119E-07",
        "Coefficient E": "-1.486158E-11",
        "Coefficient F": NaN,
        "Coefficient G": NaN,
        "T range, from": NaN,
        "T range, to": NaN
    },
    "Heat Capacity (Liquid)": NaN,
    "Viscosity (Gas, Low P)": NaN,
    "Viscosity (Liquid)": {
        "Equation Name": "Andrade Equation",
        "Equation": "ln (VISL) = A + B/ T  where T in K and VISL in cP.",
        "Coefficient A": "-4.386",
        "Coefficient B": "1298",
        "Coefficient C": "0",
        "Coefficient D": "0",
        "Coefficient E": NaN,
        "Coefficient F": NaN,
        "Coefficient G": NaN,
        "T range, from": "248.15 K",
        "T range, to": "433.15 K"
    },
    "Themal Conductivity (Gas, Low P)": NaN,
    "Themal Conductivity (Liquid)": NaN,
    "Surface Tension": NaN,
    "Partial Molar Volume (VOLP)": "1.552100E-01 m^3/kg-mol",
    "Solubility Parameters (SOLP)": "1.742547E+04 (J/cm^3)^0.5",
    "SRK accentric factor (WSRK)": "3.921000E-01",
    "COSTALD Characteristic Volume (VSTAR)": "4.921000E-01 m^3/kg-mol",
    "Rackett parameter (ZRA)": NaN,
    "Aniline Point (ANP)": NaN,
    "H(formation,ideal gas)at 25 C": "-1.382000E+04 kJ/kg-mol",
    "G(formation,ideal gas) at 25 C": "1.448000E+05 kJ/kg-mol",
    "Heat of Combustion, Gross form (HCB1)": "5.872077E+06 kJ/kg-mol",
    "Heat of Combustion, Net form (HCB2)": "5.563967E+06 kJ/kg-mol",
    "Van der Waals Volume (VDWV)": NaN,
    "Van der Waals Area (VDWA)": NaN,
    "UNIQUAC Ri Parameter (RI)": "5.946000E+00",
    "UNIQUAC Qi Parameter (QI)": "4.588000E+00",
    "Dipole Moment (DM)": "4.000000E-01 debye",
    "Radius of Gyration (GYRAD)": NaN,
    "Liquid Density (DENL)": "6.407362E-03 g-mol/cm^3",
    "Temperature of DENL (TDENL)": "2.930000E+02 K",
    "Heat of Vaporizaiton (HVAP)": "3.924600E+04 kJ/kg-mol",
    "Temperature of HVAP (THVAP)": "4.564000E+02 K",
    "Surface Tension (SRF)": "2.923000E+01 dyn/cm",
    "Temperature of SRF (TSRF)": "2.932000E+02 K",
    "Dielectric Constant (DIEL)": NaN,
    "Temperature of DIEL (TDIEL)": NaN,
    "Refractive Index (RFI)": "1.487420E+00",
    "Temperature of RFI (TRFI)": "2.981500E+02 K",
    "Lower Flammability Limit(FLL)": NaN,
    "Upper Flammability Limit(FLU)": NaN,
    "Flash Point (Open Cup Method)": NaN,
    "Flash Point (Closed Cup Method)": NaN,
    "Autoignition Temperature (AIGT)": NaN,
    "NFPA Rating (Health)": 2.0,
    "NFPA Rating (Fire)": 2.0,
    "NFPA Rating (Safety)": NaN,
    "Class": "Aromatics",
    "Subclass": "Alkyl Benzene",
    "SMILES": "CCCCC1=CC=CC=C1"
}