{
    "ID": "666",
    "Name": "ISOBUTYLBENZENE",
    "Synonyms": "1-PHENYL-2-METHYLPROPANE, 1-PHENYLISOBUTANE, (2-METHYLPROPYL)BENZENE",
    "CAS No.": "538-93-2",
    "Formula": "C10H14",
    "Molecular Wt. (WT)": "1.34221E+02",
    "Normal Boiling Point Temp. (TB)": "4.45940E+02 K",
    "Freezing Point Temp. (TF)": "2.21700E+02 K",
    "Triple Point Temp. (TT)": NaN,
    "Triple Point Press. (PT)": NaN,
    "Critical Temperature. (TC)": "6.50000E+02 K",
    "Critical Pressure (PC)": "3.05000E+03 kPa",
    "Critical Volume (VC)": "4.80000E-01 m^3/kg-mol",
    "Critical Compressibility (ZC)": "2.70889E-01",
    "Accentric Factor (ACCF)": "3.80000E-01",
    "Vapor Pressure": {
        "Equation Name": "KDB Correlation Equation",
        "Equation": "ln(Pvp) = A*ln(T) + B/T + C + D*T^2 where Pvp in kPa, T in K",
        "Coefficient A": "-1.101593E+01",
        "Coefficient B": "-8.716506E+03",
        "Coefficient C": "9.008971E+01",
        "Coefficient D": "6.334263E-06",
        "Coefficient E": NaN,
        "Coefficient F": NaN,
        "Coefficient G": NaN,
        "T range, from": "221.70 K",
        "T range, to": "650.15 K"
    },
    "Heat Capacity (Ideal Gas)": {
        "Equation Name": "Polynomial Equation",
        "Equation": "Cp = A + B*T + C*T^2 + D*T^3 + E*T^4  where Cp in kJ/kg-mol , T in K",
        "Coefficient A": "-4.160090E+01",
        "Coefficient B": "8.857334E-01",
        "Coefficient C": "-5.883795E-04",
        "Coefficient D": "1.749932E-07",
        "Coefficient E": "-1.409145E-11",
        "Coefficient F": NaN,
        "Coefficient G": NaN,
        "T range, from": NaN,
        "T range, to": NaN
    },
    "Heat Capacity (Liquid)": NaN,
    "Viscosity (Gas, Low P)": NaN,
    "Viscosity (Liquid)": NaN,
    "Themal Conductivity (Gas, Low P)": NaN,
    "Themal Conductivity (Liquid)": NaN,
    "Surface Tension": NaN,
    "Partial Molar Volume (VOLP)": NaN,
    "Solubility Parameters (SOLP)": "1.724137E+04 (J/cm^3)^0.5",
    "SRK accentric factor (WSRK)": "3.921000E-01",
    "COSTALD Characteristic Volume (VSTAR)": "4.944000E-01 m^3/kg-mol",
    "Rackett parameter (ZRA)": NaN,
    "Aniline Point (ANP)": NaN,
    "H(formation,ideal gas)at 25 C": "-2.156000E+04 kJ/kg-mol",
    "G(formation,ideal gas) at 25 C": NaN,
    "Heat of Combustion, Gross form (HCB1)": "5.877265E+06 kJ/kg-mol",
    "Heat of Combustion, Net form (HCB2)": "5.569741E+06 kJ/kg-mol",
    "Van der Waals Volume (VDWV)": NaN,
    "Van der Waals Area (VDWA)": NaN,
    "UNIQUAC Ri Parameter (RI)": NaN,
    "UNIQUAC Qi Parameter (QI)": NaN,
    "Dipole Moment (DM)": "3.000000E-01 debye",
    "Radius of Gyration (GYRAD)": NaN,
    "Liquid Density (DENL)": "6.355209E-03 g-mol/cm^3",
    "Temperature of DENL (TDENL)": "2.930000E+02 K",
    "Heat of Vaporizaiton (HVAP)": NaN,
    "Temperature of HVAP (THVAP)": NaN,
    "Surface Tension (SRF)": NaN,
    "Temperature of SRF (TSRF)": NaN,
    "Dielectric Constant (DIEL)": NaN,
    "Temperature of DIEL (TDIEL)": NaN,
    "Refractive Index (RFI)": "1.484000E+00",
    "Temperature of RFI (TRFI)": "2.981500E+02 K",
    "Lower Flammability Limit(FLL)": NaN,
    "Upper Flammability Limit(FLU)": NaN,
    "Flash Point (Open Cup Method)": NaN,
    "Flash Point (Closed Cup Method)": NaN,
    "Autoignition Temperature (AIGT)": NaN,
    "NFPA Rating (Health)": 2.0,
    "NFPA Rating (Fire)": 2.0,
    "NFPA Rating (Safety)": NaN,
    "Class": "Aromatics",
    "Subclass": "Alkyl Benzene",
    "SMILES": "CC(C)CC1=CC=CC=C1"
}