{
    "ID": "67",
    "Name": "3-ETHYLHEPTANE",
    "Synonyms": NaN,
    "CAS No.": "15869-80-4",
    "Formula": "C9H20",
    "Molecular Wt. (WT)": "1.28257E+02",
    "Normal Boiling Point Temp. (TB)": "4.16200E+02 K",
    "Freezing Point Temp. (TF)": "1.60000E+02 K",
    "Triple Point Temp. (TT)": NaN,
    "Triple Point Press. (PT)": NaN,
    "Critical Temperature. (TC)": "5.87500E+02 K",
    "Critical Pressure (PC)": "2.33000E+03 kPa",
    "Critical Volume (VC)": "5.33500E-01 m^3/kg-mol",
    "Critical Compressibility (ZC)": "2.54475E-01",
    "Accentric Factor (ACCF)": "4.16000E-01",
    "Vapor Pressure": {
        "Equation Name": "KDB Correlation Equation",
        "Equation": "ln(Pvp) = A*ln(T) + B/T + C + D*T^2 where Pvp in kPa, T in K",
        "Coefficient A": "-8.383011E+00",
        "Coefficient B": "-7.549288E+03",
        "Coefficient C": "7.262589E+01",
        "Coefficient D": "4.010875E-06",
        "Coefficient E": NaN,
        "Coefficient F": NaN,
        "Coefficient G": NaN,
        "T range, from": "158.25 K",
        "T range, to": "590.00 K"
    },
    "Heat Capacity (Ideal Gas)": {
        "Equation Name": "Polynomial Equation",
        "Equation": "Cp = A + B*T + C*T^2 + D*T^3 + E*T^4  where Cp in kJ/kg-mol , T in K",
        "Coefficient A": "9.078159E+01",
        "Coefficient B": "1.123647E-01",
        "Coefficient C": "1.527263E-03",
        "Coefficient D": "-2.074223E-06",
        "Coefficient E": "8.257083E-10",
        "Coefficient F": NaN,
        "Coefficient G": NaN,
        "T range, from": NaN,
        "T range, to": NaN
    },
    "Heat Capacity (Liquid)": NaN,
    "Viscosity (Gas, Low P)": NaN,
    "Viscosity (Liquid)": NaN,
    "Themal Conductivity (Gas, Low P)": NaN,
    "Themal Conductivity (Liquid)": NaN,
    "Surface Tension": NaN,
    "Partial Molar Volume (VOLP)": NaN,
    "Solubility Parameters (SOLP)": NaN,
    "SRK accentric factor (WSRK)": NaN,
    "COSTALD Characteristic Volume (VSTAR)": NaN,
    "Rackett parameter (ZRA)": NaN,
    "Aniline Point (ANP)": "3.461500E+02 K",
    "H(formation,ideal gas)at 25 C": NaN,
    "G(formation,ideal gas) at 25 C": NaN,
    "Heat of Combustion, Gross form (HCB1)": "6.123954E+06 kJ/kg-mol",
    "Heat of Combustion, Net form (HCB2)": "5.683839E+06 kJ/kg-mol",
    "Van der Waals Volume (VDWV)": NaN,
    "Van der Waals Area (VDWA)": NaN,
    "UNIQUAC Ri Parameter (RI)": NaN,
    "UNIQUAC Qi Parameter (QI)": NaN,
    "Dipole Moment (DM)": NaN,
    "Radius of Gyration (GYRAD)": NaN,
    "Liquid Density (DENL)": NaN,
    "Temperature of DENL (TDENL)": NaN,
    "Heat of Vaporizaiton (HVAP)": "3.673600E+04 kJ/kg-mol",
    "Temperature of HVAP (THVAP)": "4.162000E+02 K",
    "Surface Tension (SRF)": NaN,
    "Temperature of SRF (TSRF)": NaN,
    "Dielectric Constant (DIEL)": NaN,
    "Temperature of DIEL (TDIEL)": NaN,
    "Refractive Index (RFI)": "1.407000E+00",
    "Temperature of RFI (TRFI)": "2.981500E+02 K",
    "Lower Flammability Limit(FLL)": NaN,
    "Upper Flammability Limit(FLU)": NaN,
    "Flash Point (Open Cup Method)": NaN,
    "Flash Point (Closed Cup Method)": NaN,
    "Autoignition Temperature (AIGT)": NaN,
    "NFPA Rating (Health)": NaN,
    "NFPA Rating (Fire)": NaN,
    "NFPA Rating (Safety)": NaN,
    "Class": "Paraffinic Hydrocarbons",
    "Subclass": "Branched Alkanes",
    "SMILES": "CCCCC(CC)CC"
}