{
    "ID": "686",
    "Name": "1,2,4,5-TETRAMETHYLBENZENE",
    "Synonyms": "DURENE, DUROL",
    "CAS No.": "95-93-2",
    "Formula": "C10H14",
    "Molecular Wt. (WT)": "1.34221E+02",
    "Normal Boiling Point Temp. (TB)": "4.69990E+02 K",
    "Freezing Point Temp. (TF)": "3.52400E+02 K",
    "Triple Point Temp. (TT)": NaN,
    "Triple Point Press. (PT)": NaN,
    "Critical Temperature. (TC)": "6.76000E+02 K",
    "Critical Pressure (PC)": "2.90000E+03 kPa",
    "Critical Volume (VC)": NaN,
    "Critical Compressibility (ZC)": NaN,
    "Accentric Factor (ACCF)": "4.35000E-01",
    "Vapor Pressure": {
        "Equation Name": "KDB Correlation Equation",
        "Equation": "ln(Pvp) = A*ln(T) + B/T + C + D*T^2 where Pvp in kPa, T in K",
        "Coefficient A": "-1.366196E+01",
        "Coefficient B": "-1.029161E+04",
        "Coefficient C": "1.090168E+02",
        "Coefficient D": "7.040442E-06",
        "Coefficient E": NaN,
        "Coefficient F": NaN,
        "Coefficient G": NaN,
        "T range, from": "352.38 K",
        "T range, to": "675.15 K"
    },
    "Heat Capacity (Ideal Gas)": {
        "Equation Name": "Polynomial Equation",
        "Equation": "Cp = A + B*T + C*T^2 + D*T^3 + E*T^4  where Cp in kJ/kg-mol , T in K",
        "Coefficient A": "-4.160090E+01",
        "Coefficient B": "8.857334E-01",
        "Coefficient C": "-5.883795E-04",
        "Coefficient D": "1.749932E-07",
        "Coefficient E": "-1.409145E-11",
        "Coefficient F": NaN,
        "Coefficient G": NaN,
        "T range, from": NaN,
        "T range, to": NaN
    },
    "Heat Capacity (Liquid)": NaN,
    "Viscosity (Gas, Low P)": NaN,
    "Viscosity (Liquid)": NaN,
    "Themal Conductivity (Gas, Low P)": NaN,
    "Themal Conductivity (Liquid)": NaN,
    "Surface Tension": NaN,
    "Partial Molar Volume (VOLP)": NaN,
    "Solubility Parameters (SOLP)": "2.190507E+04 (J/cm^3)^0.5",
    "SRK accentric factor (WSRK)": NaN,
    "COSTALD Characteristic Volume (VSTAR)": NaN,
    "Rackett parameter (ZRA)": NaN,
    "Aniline Point (ANP)": NaN,
    "H(formation,ideal gas)at 25 C": "-4.530000E+04 kJ/kg-mol",
    "G(formation,ideal gas) at 25 C": "1.195000E+05 kJ/kg-mol",
    "Heat of Combustion, Gross form (HCB1)": NaN,
    "Heat of Combustion, Net form (HCB2)": NaN,
    "Van der Waals Volume (VDWV)": NaN,
    "Van der Waals Area (VDWA)": NaN,
    "UNIQUAC Ri Parameter (RI)": NaN,
    "UNIQUAC Qi Parameter (QI)": NaN,
    "Dipole Moment (DM)": NaN,
    "Radius of Gyration (GYRAD)": NaN,
    "Liquid Density (DENL)": "6.243453E-03 g-mol/cm^3",
    "Temperature of DENL (TDENL)": "3.540000E+02 K",
    "Heat of Vaporizaiton (HVAP)": "4.552200E+04 kJ/kg-mol",
    "Temperature of HVAP (THVAP)": "4.700000E+02 K",
    "Surface Tension (SRF)": "2.350000E+01 dyn/cm",
    "Temperature of SRF (TSRF)": "3.732000E+02 K",
    "Dielectric Constant (DIEL)": NaN,
    "Temperature of DIEL (TDIEL)": NaN,
    "Refractive Index (RFI)": "1.509300E+00",
    "Temperature of RFI (TRFI)": "2.981500E+02 K",
    "Lower Flammability Limit(FLL)": NaN,
    "Upper Flammability Limit(FLU)": NaN,
    "Flash Point (Open Cup Method)": NaN,
    "Flash Point (Closed Cup Method)": NaN,
    "Autoignition Temperature (AIGT)": NaN,
    "NFPA Rating (Health)": NaN,
    "NFPA Rating (Fire)": NaN,
    "NFPA Rating (Safety)": NaN,
    "Class": "Aromatics",
    "Subclass": "Alkyl Benzene",
    "SMILES": "CC1=CC(=C(C=C1C)C)C"
}