{
    "ID": "69",
    "Name": "2,2-DIMETHYLHEPTANE",
    "Synonyms": NaN,
    "CAS No.": "1071-26-7",
    "Formula": "C9H20",
    "Molecular Wt. (WT)": "1.28257E+02",
    "Normal Boiling Point Temp. (TB)": "4.05800E+02 K",
    "Freezing Point Temp. (TF)": "1.60000E+02 K",
    "Triple Point Temp. (TT)": NaN,
    "Triple Point Press. (PT)": NaN,
    "Critical Temperature. (TC)": "5.76700E+02 K",
    "Critical Pressure (PC)": "2.35000E+03 kPa",
    "Critical Volume (VC)": "5.28500E-01 m^3/kg-mol",
    "Critical Compressibility (ZC)": "2.59016E-01",
    "Accentric Factor (ACCF)": "3.90000E-01",
    "Vapor Pressure": {
        "Equation Name": "KDB Correlation Equation",
        "Equation": "ln(Pvp) = A*ln(T) + B/T + C + D*T^2 where Pvp in kPa, T in K",
        "Coefficient A": "-1.304193E+01",
        "Coefficient B": "-8.543801E+03",
        "Coefficient C": "1.025422E+02",
        "Coefficient D": "8.853868E-06",
        "Coefficient E": NaN,
        "Coefficient F": NaN,
        "Coefficient G": NaN,
        "T range, from": "160.15 K",
        "T range, to": "576.80 K"
    },
    "Heat Capacity (Ideal Gas)": {
        "Equation Name": "Polynomial Equation",
        "Equation": "Cp = A + B*T + C*T^2 + D*T^3 + E*T^4  where Cp in kJ/kg-mol , T in K",
        "Coefficient A": "9.078159E+01",
        "Coefficient B": "1.123647E-01",
        "Coefficient C": "1.527263E-03",
        "Coefficient D": "-2.074223E-06",
        "Coefficient E": "8.257083E-10",
        "Coefficient F": NaN,
        "Coefficient G": NaN,
        "T range, from": NaN,
        "T range, to": NaN
    },
    "Heat Capacity (Liquid)": NaN,
    "Viscosity (Gas, Low P)": NaN,
    "Viscosity (Liquid)": NaN,
    "Themal Conductivity (Gas, Low P)": NaN,
    "Themal Conductivity (Liquid)": NaN,
    "Surface Tension": NaN,
    "Partial Molar Volume (VOLP)": NaN,
    "Solubility Parameters (SOLP)": "1.480725E+04 (J/cm^3)^0.5",
    "SRK accentric factor (WSRK)": NaN,
    "COSTALD Characteristic Volume (VSTAR)": NaN,
    "Rackett parameter (ZRA)": NaN,
    "Aniline Point (ANP)": "3.521500E+02 K",
    "H(formation,ideal gas)at 25 C": "-2.470000E+05 kJ/kg-mol",
    "G(formation,ideal gas) at 25 C": "1.675000E+04 kJ/kg-mol",
    "Heat of Combustion, Gross form (HCB1)": "6.111736E+06 kJ/kg-mol",
    "Heat of Combustion, Net form (HCB2)": "5.671622E+06 kJ/kg-mol",
    "Van der Waals Volume (VDWV)": NaN,
    "Van der Waals Area (VDWA)": NaN,
    "UNIQUAC Ri Parameter (RI)": NaN,
    "UNIQUAC Qi Parameter (QI)": NaN,
    "Dipole Moment (DM)": NaN,
    "Radius of Gyration (GYRAD)": NaN,
    "Liquid Density (DENL)": "5.543557E-03 g-mol/cm^3",
    "Temperature of DENL (TDENL)": "2.930000E+02 K",
    "Heat of Vaporizaiton (HVAP)": "3.476900E+04 kJ/kg-mol",
    "Temperature of HVAP (THVAP)": "4.059000E+02 K",
    "Surface Tension (SRF)": "2.042000E+01 dyn/cm",
    "Temperature of SRF (TSRF)": "2.982000E+02 K",
    "Dielectric Constant (DIEL)": NaN,
    "Temperature of DIEL (TDIEL)": NaN,
    "Refractive Index (RFI)": "1.399300E+00",
    "Temperature of RFI (TRFI)": "2.981500E+02 K",
    "Lower Flammability Limit(FLL)": NaN,
    "Upper Flammability Limit(FLU)": NaN,
    "Flash Point (Open Cup Method)": NaN,
    "Flash Point (Closed Cup Method)": NaN,
    "Autoignition Temperature (AIGT)": NaN,
    "NFPA Rating (Health)": NaN,
    "NFPA Rating (Fire)": NaN,
    "NFPA Rating (Safety)": NaN,
    "Class": "Paraffinic Hydrocarbons",
    "Subclass": "Branched Alkanes",
    "SMILES": "CCCCCC(C)(C)C"
}