{
    "ID": "697",
    "Name": "PENTAMETHYLBENZENE",
    "Synonyms": "1,2,3,4,5-PENTAMETHYLBENZENE",
    "CAS No.": "700-12-9",
    "Formula": "C11H16",
    "Molecular Wt. (WT)": "1.48247E+02",
    "Normal Boiling Point Temp. (TB)": "5.05100E+02 K",
    "Freezing Point Temp. (TF)": "3.27500E+02 K",
    "Triple Point Temp. (TT)": NaN,
    "Triple Point Press. (PT)": NaN,
    "Critical Temperature. (TC)": "7.19000E+02 K",
    "Critical Pressure (PC)": "2.49000E+03 kPa",
    "Critical Volume (VC)": "5.43500E-01 m^3/kg-mol",
    "Critical Compressibility (ZC)": "2.26378E-01",
    "Accentric Factor (ACCF)": "4.07000E-01",
    "Vapor Pressure": {
        "Equation Name": "KDB Correlation Equation",
        "Equation": "ln(Pvp) = A*ln(T) + B/T + C + D*T^2 where Pvp in kPa, T in K",
        "Coefficient A": "-2.130795E+01",
        "Coefficient B": "-1.359721E+04",
        "Coefficient C": "1.612430E+02",
        "Coefficient D": "1.149731E-05",
        "Coefficient E": NaN,
        "Coefficient F": NaN,
        "Coefficient G": NaN,
        "T range, from": "338.15 K",
        "T range, to": "543.00 K"
    },
    "Heat Capacity (Ideal Gas)": NaN,
    "Heat Capacity (Liquid)": NaN,
    "Viscosity (Gas, Low P)": NaN,
    "Viscosity (Liquid)": NaN,
    "Themal Conductivity (Gas, Low P)": NaN,
    "Themal Conductivity (Liquid)": NaN,
    "Surface Tension": NaN,
    "Partial Molar Volume (VOLP)": NaN,
    "Solubility Parameters (SOLP)": NaN,
    "SRK accentric factor (WSRK)": NaN,
    "COSTALD Characteristic Volume (VSTAR)": NaN,
    "Rackett parameter (ZRA)": NaN,
    "Aniline Point (ANP)": NaN,
    "H(formation,ideal gas)at 25 C": NaN,
    "G(formation,ideal gas) at 25 C": NaN,
    "Heat of Combustion, Gross form (HCB1)": NaN,
    "Heat of Combustion, Net form (HCB2)": NaN,
    "Van der Waals Volume (VDWV)": NaN,
    "Van der Waals Area (VDWA)": NaN,
    "UNIQUAC Ri Parameter (RI)": NaN,
    "UNIQUAC Qi Parameter (QI)": NaN,
    "Dipole Moment (DM)": NaN,
    "Radius of Gyration (GYRAD)": NaN,
    "Liquid Density (DENL)": NaN,
    "Temperature of DENL (TDENL)": NaN,
    "Heat of Vaporizaiton (HVAP)": NaN,
    "Temperature of HVAP (THVAP)": NaN,
    "Surface Tension (SRF)": "2.327000E+01 dyn/cm",
    "Temperature of SRF (TSRF)": "3.732000E+02 K",
    "Dielectric Constant (DIEL)": NaN,
    "Temperature of DIEL (TDIEL)": NaN,
    "Refractive Index (RFI)": NaN,
    "Temperature of RFI (TRFI)": NaN,
    "Lower Flammability Limit(FLL)": NaN,
    "Upper Flammability Limit(FLU)": NaN,
    "Flash Point (Open Cup Method)": NaN,
    "Flash Point (Closed Cup Method)": NaN,
    "Autoignition Temperature (AIGT)": NaN,
    "NFPA Rating (Health)": NaN,
    "NFPA Rating (Fire)": NaN,
    "NFPA Rating (Safety)": NaN,
    "Class": "Aromatics",
    "Subclass": "Alkyl Benzene",
    "SMILES": "CC1=CC(=C(C(=C1C)C)C)C"
}