{
    "ID": "7",
    "Name": "N-HEPTANE",
    "Synonyms": "DIPROPYLMETHANE, HEPTYL HYDRIDE, HEPTANE",
    "CAS No.": "142-82-5",
    "Formula": "C7H16",
    "Molecular Wt. (WT)": "1.00203E+02",
    "Normal Boiling Point Temp. (TB)": "3.71600E+02 K",
    "Freezing Point Temp. (TF)": "1.82500E+02 K",
    "Triple Point Temp. (TT)": "1.82550E+02 K",
    "Triple Point Press. (PT)": NaN,
    "Critical Temperature. (TC)": "5.40200E+02 K",
    "Critical Pressure (PC)": "2.74000E+03 kPa",
    "Critical Volume (VC)": "4.28000E-01 m^3/kg-mol",
    "Critical Compressibility (ZC)": "2.61098E-01",
    "Accentric Factor (ACCF)": "3.49000E-01",
    "Vapor Pressure": {
        "Equation Name": "KDB Correlation Equation",
        "Equation": "ln(Pvp) = A*ln(T) + B/T + C + D*T^2 where Pvp in kPa, T in K",
        "Coefficient A": "-1.412388E+01",
        "Coefficient B": "-8.030070E+03",
        "Coefficient C": "1.081461E+02",
        "Coefficient D": "1.204855E-05",
        "Coefficient E": NaN,
        "Coefficient F": NaN,
        "Coefficient G": NaN,
        "T range, from": "182.56 K",
        "T range, to": "540.26 K"
    },
    "Heat Capacity (Ideal Gas)": {
        "Equation Name": "Polynomial Equation",
        "Equation": "Cp = A + B*T + C*T^2 + D*T^3 + E*T^4  where Cp in kJ/kg-mol , T in K",
        "Coefficient A": "3.766331E+01",
        "Coefficient B": "3.940607E-01",
        "Coefficient C": "2.587152E-04",
        "Coefficient D": "-4.743667E-07",
        "Coefficient E": "1.663535E-10",
        "Coefficient F": NaN,
        "Coefficient G": NaN,
        "T range, from": NaN,
        "T range, to": NaN
    },
    "Heat Capacity (Liquid)": NaN,
    "Viscosity (Gas, Low P)": NaN,
    "Viscosity (Liquid)": {
        "Equation Name": "Andrade Equation",
        "Equation": "ln (VISL) = A + B/ T  where T in K and VISL in cP.",
        "Coefficient A": "-4.325",
        "Coefficient B": "1006",
        "Coefficient C": "0",
        "Coefficient D": "0",
        "Coefficient E": NaN,
        "Coefficient F": NaN,
        "Coefficient G": NaN,
        "T range, from": "183.15 K",
        "T range, to": "373.15 K"
    },
    "Themal Conductivity (Gas, Low P)": NaN,
    "Themal Conductivity (Liquid)": NaN,
    "Surface Tension": NaN,
    "Partial Molar Volume (VOLP)": "1.474700E-01 m^3/kg-mol",
    "Solubility Parameters (SOLP)": "1.519589E+04 (J/cm^3)^0.5",
    "SRK accentric factor (WSRK)": "3.507000E-01",
    "COSTALD Characteristic Volume (VSTAR)": "4.304000E-01 m^3/kg-mol",
    "Rackett parameter (ZRA)": "2.604000E-01",
    "Aniline Point (ANP)": "3.428500E+02 K",
    "H(formation,ideal gas)at 25 C": "-1.879000E+05 kJ/kg-mol",
    "G(formation,ideal gas) at 25 C": "8.000000E+03 kJ/kg-mol",
    "Heat of Combustion, Gross form (HCB1)": "4.816914E+06 kJ/kg-mol",
    "Heat of Combustion, Net form (HCB2)": "4.464788E+06 kJ/kg-mol",
    "Van der Waals Volume (VDWV)": NaN,
    "Van der Waals Area (VDWA)": NaN,
    "UNIQUAC Ri Parameter (RI)": "5.174200E+00",
    "UNIQUAC Qi Parameter (QI)": "4.396000E+00",
    "Dipole Moment (DM)": "0.000000E+00 debye",
    "Radius of Gyration (GYRAD)": "4.267000E+00",
    "Liquid Density (DENL)": "6.826116E-03 g-mol/cm^3",
    "Temperature of DENL (TDENL)": "2.930000E+02 K",
    "Heat of Vaporizaiton (HVAP)": "3.169800E+04 kJ/kg-mol",
    "Temperature of HVAP (THVAP)": "3.716000E+02 K",
    "Surface Tension (SRF)": "2.014000E+01 dyn/cm",
    "Temperature of SRF (TSRF)": "2.932000E+02 K",
    "Dielectric Constant (DIEL)": NaN,
    "Temperature of DIEL (TDIEL)": NaN,
    "Refractive Index (RFI)": "1.385110E+00",
    "Temperature of RFI (TRFI)": "2.981500E+02 K",
    "Lower Flammability Limit(FLL)": "1.000000E+00 % in Air",
    "Upper Flammability Limit(FLU)": "7.000000E+00 % in Air",
    "Flash Point (Open Cup Method)": "2.692611E+02 K",
    "Flash Point (Closed Cup Method)": NaN,
    "Autoignition Temperature (AIGT)": "4.959278E+02 K",
    "NFPA Rating (Health)": NaN,
    "NFPA Rating (Fire)": NaN,
    "NFPA Rating (Safety)": NaN,
    "Class": "Paraffinic Hydrocarbons",
    "Subclass": "n-Alkanes",
    "SMILES": "CCCCCCC"
}