{
    "ID": "718",
    "Name": "STYRENE",
    "Synonyms": "ETHENYLBENZENE, PHENYLETHYLENE, VINYLBENZENE",
    "CAS No.": "100-42-5",
    "Formula": "C8H8",
    "Molecular Wt. (WT)": "1.04151E+02",
    "Normal Boiling Point Temp. (TB)": "4.18300E+02 K",
    "Freezing Point Temp. (TF)": "2.42500E+02 K",
    "Triple Point Temp. (TT)": NaN,
    "Triple Point Press. (PT)": NaN,
    "Critical Temperature. (TC)": "6.47000E+02 K",
    "Critical Pressure (PC)": "3.99000E+03 kPa",
    "Critical Volume (VC)": NaN,
    "Critical Compressibility (ZC)": NaN,
    "Accentric Factor (ACCF)": "2.57000E-01",
    "Vapor Pressure": {
        "Equation Name": "KDB Correlation Equation",
        "Equation": "ln(Pvp) = A*ln(T) + B/T + C + D*T^2 where Pvp in kPa, T in K",
        "Coefficient A": "-1.043131E+01",
        "Coefficient B": "-8.119066E+03",
        "Coefficient C": "8.600578E+01",
        "Coefficient D": "5.611691E-06",
        "Coefficient E": NaN,
        "Coefficient F": NaN,
        "Coefficient G": NaN,
        "T range, from": "242.54 K",
        "T range, to": "648.00 K"
    },
    "Heat Capacity (Ideal Gas)": {
        "Equation Name": "Polynomial Equation",
        "Equation": "Cp = A + B*T + C*T^2 + D*T^3 + E*T^4  where Cp in kJ/kg-mol , T in K",
        "Coefficient A": "-5.164054E+01",
        "Coefficient B": "7.579640E-01",
        "Coefficient C": "-6.942695E-04",
        "Coefficient D": "3.422122E-07",
        "Coefficient E": "-7.005181E-11",
        "Coefficient F": NaN,
        "Coefficient G": NaN,
        "T range, from": NaN,
        "T range, to": NaN
    },
    "Heat Capacity (Liquid)": {
        "Equation Name": "Polynomial Equation",
        "Equation": "Cp = A + B*T + C*T^2 + D*T^3  where T in K and Cp in kJ/kg-mol.K",
        "Coefficient A": "-137.4414",
        "Coefficient B": "2.381475",
        "Coefficient C": "-6.231491E-03",
        "Coefficient D": "6.248922E-06",
        "Coefficient E": NaN,
        "Coefficient F": NaN,
        "Coefficient G": NaN,
        "T range, from": "242.55 K",
        "T range, to": "598.15 K"
    },
    "Viscosity (Gas, Low P)": {
        "Equation Name": "Polynomial Equation",
        "Equation": "VISG = A + B*T + C*T^2 where T in K and VISG in cP",
        "Coefficient A": "-.0005683",
        "Coefficient B": "2.368E-05",
        "Coefficient C": "-3.268E-09",
        "Coefficient D": "0",
        "Coefficient E": NaN,
        "Coefficient F": NaN,
        "Coefficient G": NaN,
        "T range, from": "273.15 K",
        "T range, to": "1273.15 K"
    },
    "Viscosity (Liquid)": {
        "Equation Name": "Quasipolynomial Equation",
        "Equation": "ln (VISL) = A + B/T + C*T + D*T^2  where T in K and VISL in cP.",
        "Coefficient A": "-2.717",
        "Coefficient B": "946.1",
        "Coefficient C": "-.003173",
        "Coefficient D": "1.683E-06",
        "Coefficient E": NaN,
        "Coefficient F": NaN,
        "Coefficient G": NaN,
        "T range, from": "243.15 K",
        "T range, to": "633.15 K"
    },
    "Themal Conductivity (Gas, Low P)": {
        "Equation Name": "Polynomial Equation",
        "Equation": "THG = A + B*T + C*T^2 + D*T^3  where T in K and THG in W/m.K",
        "Coefficient A": ".0008752",
        "Coefficient B": "-1.926E-06",
        "Coefficient C": "1.244E-07",
        "Coefficient D": "-5.071E-11",
        "Coefficient E": NaN,
        "Coefficient F": NaN,
        "Coefficient G": NaN,
        "T range, from": "273 K",
        "T range, to": "1270 K"
    },
    "Themal Conductivity (Liquid)": {
        "Equation Name": "Polynomial Equation",
        "Equation": "THL = A + B*T + C*T^2 + D*T^3  where T in K and THL in W/m.K",
        "Coefficient A": ".2696",
        "Coefficient B": "-.0003384",
        "Coefficient C": "1.675E-08",
        "Coefficient D": "0",
        "Coefficient E": NaN,
        "Coefficient F": NaN,
        "Coefficient G": NaN,
        "T range, from": "243 K",
        "T range, to": "623 K"
    },
    "Surface Tension": NaN,
    "Partial Molar Volume (VOLP)": "1.155700E-01 m^3/kg-mol",
    "Solubility Parameters (SOLP)": "1.885731E+04 (J/cm^3)^0.5",
    "SRK accentric factor (WSRK)": "2.420000E-01",
    "COSTALD Characteristic Volume (VSTAR)": "3.482000E-01 m^3/kg-mol",
    "Rackett parameter (ZRA)": "2.634000E-01",
    "Aniline Point (ANP)": NaN,
    "H(formation,ideal gas)at 25 C": "-1.475000E+05 kJ/kg-mol",
    "G(formation,ideal gas) at 25 C": "2.139000E+05 kJ/kg-mol",
    "Heat of Combustion, Gross form (HCB1)": "4.395334E+06 kJ/kg-mol",
    "Heat of Combustion, Net form (HCB2)": "4.219313E+06 kJ/kg-mol",
    "Van der Waals Volume (VDWV)": NaN,
    "Van der Waals Area (VDWA)": NaN,
    "UNIQUAC Ri Parameter (RI)": "4.367100E+00",
    "UNIQUAC Qi Parameter (QI)": "3.296000E+00",
    "Dipole Moment (DM)": "1.000000E-01 debye",
    "Radius of Gyration (GYRAD)": "3.800000E+00",
    "Liquid Density (DENL)": "8.698892E-03 g-mol/cm^3",
    "Temperature of DENL (TDENL)": "2.930000E+02 K",
    "Heat of Vaporizaiton (HVAP)": "3.681900E+04 kJ/kg-mol",
    "Temperature of HVAP (THVAP)": "4.182000E+02 K",
    "Surface Tension (SRF)": "3.200000E+01 dyn/cm",
    "Temperature of SRF (TSRF)": "2.932000E+02 K",
    "Dielectric Constant (DIEL)": NaN,
    "Temperature of DIEL (TDIEL)": NaN,
    "Refractive Index (RFI)": "1.543950E+00",
    "Temperature of RFI (TRFI)": "2.981500E+02 K",
    "Lower Flammability Limit(FLL)": "1.100000E+00 % in Air",
    "Upper Flammability Limit(FLU)": "6.100000E+00 % in Air",
    "Flash Point (Open Cup Method)": "3.042611E+02 K",
    "Flash Point (Closed Cup Method)": "3.070389E+02 K",
    "Autoignition Temperature (AIGT)": "7.631500E+02 K",
    "NFPA Rating (Health)": "2",
    "NFPA Rating (Fire)": "3",
    "NFPA Rating (Safety)": "2",
    "Class": "Aromatics",
    "Subclass": "Unsaturated Aromatics",
    "SMILES": "C=CC1=CC=CC=C1"
}