{
    "ID": "719",
    "Name": "ALPHA-METHYLSTYRENE",
    "Synonyms": "ISOPROPENYLBENZENE",
    "CAS No.": "98-83-9",
    "Formula": "C9H10",
    "Molecular Wt. (WT)": "1.18178E+02",
    "Normal Boiling Point Temp. (TB)": "4.38650E+02 K",
    "Freezing Point Temp. (TF)": "2.50000E+02 K",
    "Triple Point Temp. (TT)": NaN,
    "Triple Point Press. (PT)": NaN,
    "Critical Temperature. (TC)": "6.54000E+02 K",
    "Critical Pressure (PC)": "3.40000E+03 kPa",
    "Critical Volume (VC)": NaN,
    "Critical Compressibility (ZC)": NaN,
    "Accentric Factor (ACCF)": NaN,
    "Vapor Pressure": {
        "Equation Name": "KDB Correlation Equation",
        "Equation": "ln(Pvp) = A*ln(T) + B/T + C + D*T^2 where Pvp in kPa, T in K",
        "Coefficient A": "-7.507675E+00",
        "Coefficient B": "-7.621720E+03",
        "Coefficient C": "6.699922E+01",
        "Coefficient D": "3.357988E-06",
        "Coefficient E": NaN,
        "Coefficient F": NaN,
        "Coefficient G": NaN,
        "T range, from": "249.95 K",
        "T range, to": "654.00 K"
    },
    "Heat Capacity (Ideal Gas)": {
        "Equation Name": "Polynomial Equation",
        "Equation": "Cp = A + B*T + C*T^2 + D*T^3 + E*T^4  where Cp in kJ/kg-mol , T in K",
        "Coefficient A": "-2.211074E+01",
        "Coefficient B": "6.824685E-01",
        "Coefficient C": "-4.429525E-04",
        "Coefficient D": "1.265075E-07",
        "Coefficient E": "-9.808101E-12",
        "Coefficient F": NaN,
        "Coefficient G": NaN,
        "T range, from": NaN,
        "T range, to": NaN
    },
    "Heat Capacity (Liquid)": NaN,
    "Viscosity (Gas, Low P)": NaN,
    "Viscosity (Liquid)": NaN,
    "Themal Conductivity (Gas, Low P)": NaN,
    "Themal Conductivity (Liquid)": NaN,
    "Surface Tension": NaN,
    "Partial Molar Volume (VOLP)": "1.292700E-01 m^3/kg-mol",
    "Solubility Parameters (SOLP)": "1.824366E+04 (J/cm^3)^0.5",
    "SRK accentric factor (WSRK)": NaN,
    "COSTALD Characteristic Volume (VSTAR)": NaN,
    "Rackett parameter (ZRA)": NaN,
    "Aniline Point (ANP)": NaN,
    "H(formation,ideal gas)at 25 C": NaN,
    "G(formation,ideal gas) at 25 C": NaN,
    "Heat of Combustion, Gross form (HCB1)": "5.037536E+06 kJ/kg-mol",
    "Heat of Combustion, Net form (HCB2)": "4.817876E+06 kJ/kg-mol",
    "Van der Waals Volume (VDWV)": NaN,
    "Van der Waals Area (VDWA)": NaN,
    "UNIQUAC Ri Parameter (RI)": 5.0402,
    "UNIQUAC Qi Parameter (QI)": 3.963,
    "Dipole Moment (DM)": NaN,
    "Radius of Gyration (GYRAD)": NaN,
    "Liquid Density (DENL)": "7.708711E-03 g-mol/cm^3",
    "Temperature of DENL (TDENL)": "2.930000E+02 K",
    "Heat of Vaporizaiton (HVAP)": "3.828400E+04 kJ/kg-mol",
    "Temperature of HVAP (THVAP)": "4.385000E+02 K",
    "Surface Tension (SRF)": "3.256000E+01 dyn/cm",
    "Temperature of SRF (TSRF)": "2.932000E+02 K",
    "Dielectric Constant (DIEL)": NaN,
    "Temperature of DIEL (TDIEL)": NaN,
    "Refractive Index (RFI)": "1.535800E+00",
    "Temperature of RFI (TRFI)": "2.981500E+02 K",
    "Lower Flammability Limit(FLL)": "1.900000E+00 % in Air",
    "Upper Flammability Limit(FLU)": "6.100000E+00 % in Air",
    "Flash Point (Open Cup Method)": "3.314833E+02 K",
    "Flash Point (Closed Cup Method)": NaN,
    "Autoignition Temperature (AIGT)": "8.475945E+02 K",
    "NFPA Rating (Health)": "2",
    "NFPA Rating (Fire)": "2",
    "NFPA Rating (Safety)": NaN,
    "Class": "Aromatics",
    "Subclass": "Unsaturated Aromatics",
    "SMILES": "CC(=C)C1=CC=CC=C1"
}