{
    "ID": "722",
    "Name": "O-METHYLSTYRENE",
    "Synonyms": "1-METHYL-2-ETHENYLBENZENE, O-VINYLTOLUENE, 2-METHYLSTYRENE",
    "CAS No.": "611-15-4",
    "Formula": "C9H10",
    "Molecular Wt. (WT)": "1.18178E+02",
    "Normal Boiling Point Temp. (TB)": "4.44200E+02 K",
    "Freezing Point Temp. (TF)": "2.05000E+02 K",
    "Triple Point Temp. (TT)": NaN,
    "Triple Point Press. (PT)": NaN,
    "Critical Temperature. (TC)": "6.62700E+02 K",
    "Critical Pressure (PC)": "3.37000E+03 kPa",
    "Critical Volume (VC)": "4.12500E-01 m^3/kg-mol",
    "Critical Compressibility (ZC)": "2.52290E-01",
    "Accentric Factor (ACCF)": "3.25000E-01",
    "Vapor Pressure": {
        "Equation Name": "KDB Correlation Equation",
        "Equation": "ln(Pvp) = A*ln(T) + B/T + C + D*T^2 where Pvp in kPa, T in K",
        "Coefficient A": "-9.809919E+00",
        "Coefficient B": "-8.584059E+03",
        "Coefficient C": "8.288130E+01",
        "Coefficient D": "4.536266E-06",
        "Coefficient E": NaN,
        "Coefficient F": NaN,
        "Coefficient G": NaN,
        "T range, from": "204.58 K",
        "T range, to": "659.00 K"
    },
    "Heat Capacity (Ideal Gas)": NaN,
    "Heat Capacity (Liquid)": NaN,
    "Viscosity (Gas, Low P)": NaN,
    "Viscosity (Liquid)": NaN,
    "Themal Conductivity (Gas, Low P)": NaN,
    "Themal Conductivity (Liquid)": NaN,
    "Surface Tension": NaN,
    "Partial Molar Volume (VOLP)": NaN,
    "Solubility Parameters (SOLP)": NaN,
    "SRK accentric factor (WSRK)": NaN,
    "COSTALD Characteristic Volume (VSTAR)": NaN,
    "Rackett parameter (ZRA)": NaN,
    "Aniline Point (ANP)": NaN,
    "H(formation,ideal gas)at 25 C": NaN,
    "G(formation,ideal gas) at 25 C": NaN,
    "Heat of Combustion, Gross form (HCB1)": "5.044649E+06 kJ/kg-mol",
    "Heat of Combustion, Net form (HCB2)": "4.824989E+06 kJ/kg-mol",
    "Van der Waals Volume (VDWV)": NaN,
    "Van der Waals Area (VDWA)": NaN,
    "UNIQUAC Ri Parameter (RI)": NaN,
    "UNIQUAC Qi Parameter (QI)": NaN,
    "Dipole Moment (DM)": NaN,
    "Radius of Gyration (GYRAD)": NaN,
    "Liquid Density (DENL)": NaN,
    "Temperature of DENL (TDENL)": NaN,
    "Heat of Vaporizaiton (HVAP)": "3.681900E+04 kJ/kg-mol",
    "Temperature of HVAP (THVAP)": "4.442000E+02 K",
    "Surface Tension (SRF)": NaN,
    "Temperature of SRF (TSRF)": NaN,
    "Dielectric Constant (DIEL)": NaN,
    "Temperature of DIEL (TDIEL)": NaN,
    "Refractive Index (RFI)": "1.541300E+00",
    "Temperature of RFI (TRFI)": "2.981500E+02 K",
    "Lower Flammability Limit(FLL)": NaN,
    "Upper Flammability Limit(FLU)": NaN,
    "Flash Point (Open Cup Method)": NaN,
    "Flash Point (Closed Cup Method)": NaN,
    "Autoignition Temperature (AIGT)": NaN,
    "NFPA Rating (Health)": NaN,
    "NFPA Rating (Fire)": NaN,
    "NFPA Rating (Safety)": NaN,
    "Class": "Aromatics",
    "Subclass": "Unsaturated Aromatics",
    "SMILES": "CC1=CC=CC=C1C=C"
}