{
    "ID": "751",
    "Name": "INDANE",
    "Synonyms": "INDAN, 2,3-DIHYDROINDENE",
    "CAS No.": "496-11-7",
    "Formula": "C9H10",
    "Molecular Wt. (WT)": "1.18178E+02",
    "Normal Boiling Point Temp. (TB)": "4.51120E+02 K",
    "Freezing Point Temp. (TF)": "2.21700E+02 K",
    "Triple Point Temp. (TT)": NaN,
    "Triple Point Press. (PT)": NaN,
    "Critical Temperature. (TC)": "6.84900E+02 K",
    "Critical Pressure (PC)": "3.95000E+03 kPa",
    "Critical Volume (VC)": NaN,
    "Critical Compressibility (ZC)": NaN,
    "Accentric Factor (ACCF)": "3.08000E-01",
    "Vapor Pressure": {
        "Equation Name": "KDB Correlation Equation",
        "Equation": "ln(Pvp) = A*ln(T) + B/T + C + D*T^2 where Pvp in kPa, T in K",
        "Coefficient A": "-1.000285E+01",
        "Coefficient B": "-8.590351E+03",
        "Coefficient C": "8.377337E+01",
        "Coefficient D": "5.029361E-06",
        "Coefficient E": NaN,
        "Coefficient F": NaN,
        "Coefficient G": NaN,
        "T range, from": "221.74 K",
        "T range, to": "684.90 K"
    },
    "Heat Capacity (Ideal Gas)": {
        "Equation Name": "Polynomial Equation",
        "Equation": "Cp = A + B*T + C*T^2 + D*T^3 + E*T^4  where Cp in kJ/kg-mol , T in K",
        "Coefficient A": "-3.064966E+01",
        "Coefficient B": "5.931000E-01",
        "Coefficient C": "-1.043899E-04",
        "Coefficient D": "-2.227282E-07",
        "Coefficient E": "1.04647E-10",
        "Coefficient F": NaN,
        "Coefficient G": NaN,
        "T range, from": NaN,
        "T range, to": NaN
    },
    "Heat Capacity (Liquid)": NaN,
    "Viscosity (Gas, Low P)": NaN,
    "Viscosity (Liquid)": NaN,
    "Themal Conductivity (Gas, Low P)": NaN,
    "Themal Conductivity (Liquid)": NaN,
    "Surface Tension": NaN,
    "Partial Molar Volume (VOLP)": NaN,
    "Solubility Parameters (SOLP)": "1.914367E+04 (J/cm^3)^0.5",
    "SRK accentric factor (WSRK)": NaN,
    "COSTALD Characteristic Volume (VSTAR)": NaN,
    "Rackett parameter (ZRA)": NaN,
    "Aniline Point (ANP)": NaN,
    "H(formation,ideal gas)at 25 C": NaN,
    "G(formation,ideal gas) at 25 C": NaN,
    "Heat of Combustion, Gross form (HCB1)": NaN,
    "Heat of Combustion, Net form (HCB2)": NaN,
    "Van der Waals Volume (VDWV)": NaN,
    "Van der Waals Area (VDWA)": NaN,
    "UNIQUAC Ri Parameter (RI)": NaN,
    "UNIQUAC Qi Parameter (QI)": NaN,
    "Dipole Moment (DM)": NaN,
    "Radius of Gyration (GYRAD)": NaN,
    "Liquid Density (DENL)": NaN,
    "Temperature of DENL (TDENL)": NaN,
    "Heat of Vaporizaiton (HVAP)": NaN,
    "Temperature of HVAP (THVAP)": NaN,
    "Surface Tension (SRF)": NaN,
    "Temperature of SRF (TSRF)": NaN,
    "Dielectric Constant (DIEL)": NaN,
    "Temperature of DIEL (TDIEL)": NaN,
    "Refractive Index (RFI)": "1.535800E+00",
    "Temperature of RFI (TRFI)": "2.981500E+02 K",
    "Lower Flammability Limit(FLL)": NaN,
    "Upper Flammability Limit(FLU)": NaN,
    "Flash Point (Open Cup Method)": NaN,
    "Flash Point (Closed Cup Method)": NaN,
    "Autoignition Temperature (AIGT)": NaN,
    "NFPA Rating (Health)": NaN,
    "NFPA Rating (Fire)": NaN,
    "NFPA Rating (Safety)": NaN,
    "Class": "Aromatics",
    "Subclass": "Polyaromatics",
    "SMILES": "C1CC2=CC=CC=C2C1"
}