{
    "ID": "752",
    "Name": "NAPHTHALENE",
    "Synonyms": "ALBOCARBON, DEZODORATOR, NAPHTHENE",
    "CAS No.": "91-20-3",
    "Formula": "C10H8",
    "Molecular Wt. (WT)": "1.28173E+02",
    "Normal Boiling Point Temp. (TB)": "4.91140E+02 K",
    "Freezing Point Temp. (TF)": "3.53300E+02 K",
    "Triple Point Temp. (TT)": "3.53420E+02 K",
    "Triple Point Press. (PT)": "9.99600E-01 kPa",
    "Critical Temperature. (TC)": "7.48400E+02 K",
    "Critical Pressure (PC)": "4.05000E+03 kPa",
    "Critical Volume (VC)": "4.07000E-01 m^3/kg-mol",
    "Critical Compressibility (ZC)": "2.64898E-01",
    "Accentric Factor (ACCF)": "3.02000E-01",
    "Vapor Pressure": {
        "Equation Name": "KDB Correlation Equation",
        "Equation": "ln(Pvp) = A*ln(T) + B/T + C + D*T^2 where Pvp in kPa, T in K",
        "Coefficient A": "-7.670601E+00",
        "Coefficient B": "-8.563701E+03",
        "Coefficient C": "6.888815E+01",
        "Coefficient D": "2.862167E-06",
        "Coefficient E": NaN,
        "Coefficient F": NaN,
        "Coefficient G": NaN,
        "T range, from": "353.43 K",
        "T range, to": "748.35 K"
    },
    "Heat Capacity (Ideal Gas)": {
        "Equation Name": "Polynomial Equation",
        "Equation": "Cp = A + B*T + C*T^2 + D*T^3 + E*T^4  where Cp in kJ/kg-mol , T in K",
        "Coefficient A": "-4.776040E+01",
        "Coefficient B": "7.213023E-01",
        "Coefficient C": "-3.873260E-04",
        "Coefficient D": "-1.22806E-09",
        "Coefficient E": "4.422254E-11",
        "Coefficient F": NaN,
        "Coefficient G": NaN,
        "T range, from": NaN,
        "T range, to": NaN
    },
    "Heat Capacity (Liquid)": {
        "Equation Name": "Polynomial Equation",
        "Equation": "Cp = A + B*T + C*T^2 + D*T^3  where T in K and Cp in kJ/kg-mol.K",
        "Coefficient A": "-757.2227",
        "Coefficient B": "6.226172",
        "Coefficient C": "-1.354635E-02",
        "Coefficient D": "1.052711E-05",
        "Coefficient E": NaN,
        "Coefficient F": NaN,
        "Coefficient G": NaN,
        "T range, from": "353.7 K",
        "T range, to": "683.15 K"
    },
    "Viscosity (Gas, Low P)": {
        "Equation Name": "Polynomial Equation",
        "Equation": "VISG = A + B*T + C*T^2 where T in K and VISG in cP",
        "Coefficient A": "-.002486",
        "Coefficient B": "2.765E-05",
        "Coefficient C": "-4.955E-09",
        "Coefficient D": "0",
        "Coefficient E": NaN,
        "Coefficient F": NaN,
        "Coefficient G": NaN,
        "T range, from": "273.15 K",
        "T range, to": "1273.15 K"
    },
    "Viscosity (Liquid)": {
        "Equation Name": "Quasipolynomial Equation",
        "Equation": "ln (VISL) = A + B/T + C*T + D*T^2  where T in K and VISL in cP.",
        "Coefficient A": "-10.27",
        "Coefficient B": "2517",
        "Coefficient C": ".01098",
        "Coefficient D": "-5.867E-06",
        "Coefficient E": NaN,
        "Coefficient F": NaN,
        "Coefficient G": NaN,
        "T range, from": "354.15 K",
        "T range, to": "748.15 K"
    },
    "Themal Conductivity (Gas, Low P)": {
        "Equation Name": "Polynomial Equation",
        "Equation": "THG = A + B*T + C*T^2 + D*T^3  where T in K and THG in W/m.K",
        "Coefficient A": "-.00938",
        "Coefficient B": "4.937E-05",
        "Coefficient C": "3.811E-08",
        "Coefficient D": "-1.064E-11",
        "Coefficient E": NaN,
        "Coefficient F": NaN,
        "Coefficient G": NaN,
        "T range, from": "273 K",
        "T range, to": "1270 K"
    },
    "Themal Conductivity (Liquid)": {
        "Equation Name": "Polynomial Equation",
        "Equation": "THL = A + B*T + C*T^2 + D*T^3  where T in K and THL in W/m.K",
        "Coefficient A": ".1328",
        "Coefficient B": "5.954E-05",
        "Coefficient C": "-1.692E-07",
        "Coefficient D": "0",
        "Coefficient E": NaN,
        "Coefficient F": NaN,
        "Coefficient G": NaN,
        "T range, from": "354 K",
        "T range, to": "733 K"
    },
    "Surface Tension": NaN,
    "Partial Molar Volume (VOLP)": "1.250300E-01 m^3/kg-mol",
    "Solubility Parameters (SOLP)": "2.030960E+04 (J/cm^3)^0.5",
    "SRK accentric factor (WSRK)": "3.000000E-01",
    "COSTALD Characteristic Volume (VSTAR)": "3.834000E-01 m^3/kg-mol",
    "Rackett parameter (ZRA)": NaN,
    "Aniline Point (ANP)": NaN,
    "H(formation,ideal gas)at 25 C": "1.511000E+05 kJ/kg-mol",
    "G(formation,ideal gas) at 25 C": "2.237000E+05 kJ/kg-mol",
    "Heat of Combustion, Gross form (HCB1)": "5.156948E+06 kJ/kg-mol",
    "Heat of Combustion, Net form (HCB2)": "4.980885E+06 kJ/kg-mol",
    "Van der Waals Volume (VDWV)": NaN,
    "Van der Waals Area (VDWA)": NaN,
    "UNIQUAC Ri Parameter (RI)": "4.980800E+00",
    "UNIQUAC Qi Parameter (QI)": "3.440000E+00",
    "Dipole Moment (DM)": "0.000000E+00 debye",
    "Radius of Gyration (GYRAD)": NaN,
    "Liquid Density (DENL)": "7.575687E-03 g-mol/cm^3",
    "Temperature of DENL (TDENL)": "3.630000E+02 K",
    "Heat of Vaporizaiton (HVAP)": "4.326300E+04 kJ/kg-mol",
    "Temperature of HVAP (THVAP)": "4.911000E+02 K",
    "Surface Tension (SRF)": "2.734000E+01 dyn/cm",
    "Temperature of SRF (TSRF)": "4.132000E+02 K",
    "Dielectric Constant (DIEL)": NaN,
    "Temperature of DIEL (TDIEL)": NaN,
    "Refractive Index (RFI)": "1.589800E+00",
    "Temperature of RFI (TRFI)": "2.981500E+02 K",
    "Lower Flammability Limit(FLL)": "9.000000E-01 % in Air",
    "Upper Flammability Limit(FLU)": "5.900000E+00 % in Air",
    "Flash Point (Open Cup Method)": "3.520389E+02 K",
    "Flash Point (Closed Cup Method)": "3.609278E+02 K",
    "Autoignition Temperature (AIGT)": "7.992612E+02 K",
    "NFPA Rating (Health)": "2",
    "NFPA Rating (Fire)": "2",
    "NFPA Rating (Safety)": NaN,
    "Class": "Aromatics",
    "Subclass": "Polyaromatics",
    "SMILES": "C1=CC=C2C=CC=CC2=C1"
}