{
    "ID": "760",
    "Name": "1-METHYLNAPHTHALENE",
    "Synonyms": "ALPHA-METHYLNAPHTHALENE",
    "CAS No.": "90-12-0",
    "Formula": "C11H10",
    "Molecular Wt. (WT)": "1.42200E+02",
    "Normal Boiling Point Temp. (TB)": "5.17890E+02 K",
    "Freezing Point Temp. (TF)": "2.42670E+02 K",
    "Triple Point Temp. (TT)": "2.42700E+02 K",
    "Triple Point Press. (PT)": NaN,
    "Critical Temperature. (TC)": "7.72000E+02 K",
    "Critical Pressure (PC)": "3.60000E+03 kPa",
    "Critical Volume (VC)": NaN,
    "Critical Compressibility (ZC)": NaN,
    "Accentric Factor (ACCF)": "3.10000E-01",
    "Vapor Pressure": {
        "Equation Name": "KDB Correlation Equation",
        "Equation": "ln(Pvp) = A*ln(T) + B/T + C + D*T^2 where Pvp in kPa, T in K",
        "Coefficient A": "-7.840215E+00",
        "Coefficient B": "-9.294336E+03",
        "Coefficient C": "7.093371E+01",
        "Coefficient D": "2.382978E-06",
        "Coefficient E": NaN,
        "Coefficient F": NaN,
        "Coefficient G": NaN,
        "T range, from": "242.67 K",
        "T range, to": "772.04 K"
    },
    "Heat Capacity (Ideal Gas)": {
        "Equation Name": "Polynomial Equation",
        "Equation": "Cp = A + B*T + C*T^2 + D*T^3 + E*T^4  where Cp in kJ/kg-mol , T in K",
        "Coefficient A": "-3.630410E+01",
        "Coefficient B": "7.795498E-01",
        "Coefficient C": "-4.195113E-04",
        "Coefficient D": "2.023682E-08",
        "Coefficient E": "3.615315E-11",
        "Coefficient F": NaN,
        "Coefficient G": NaN,
        "T range, from": NaN,
        "T range, to": NaN
    },
    "Heat Capacity (Liquid)": NaN,
    "Viscosity (Gas, Low P)": NaN,
    "Viscosity (Liquid)": NaN,
    "Themal Conductivity (Gas, Low P)": NaN,
    "Themal Conductivity (Liquid)": NaN,
    "Surface Tension": NaN,
    "Partial Molar Volume (VOLP)": "1.394100E-01 m^3/kg-mol",
    "Solubility Parameters (SOLP)": "2.012755E+04 (J/cm^3)^0.5",
    "SRK accentric factor (WSRK)": "3.422000E-01",
    "COSTALD Characteristic Volume (VSTAR)": "4.504000E-01 m^3/kg-mol",
    "Rackett parameter (ZRA)": NaN,
    "Aniline Point (ANP)": NaN,
    "H(formation,ideal gas)at 25 C": "1.169000E+05 kJ/kg-mol",
    "G(formation,ideal gas) at 25 C": "2.178000E+05 kJ/kg-mol",
    "Heat of Combustion, Gross form (HCB1)": NaN,
    "Heat of Combustion, Net form (HCB2)": NaN,
    "Van der Waals Volume (VDWV)": NaN,
    "Van der Waals Area (VDWA)": NaN,
    "UNIQUAC Ri Parameter (RI)": "5.715800E+00",
    "UNIQUAC Qi Parameter (QI)": "4.009000E+00",
    "Dipole Moment (DM)": "5.000000E-01 debye",
    "Radius of Gyration (GYRAD)": NaN,
    "Liquid Density (DENL)": "7.172996E-03 g-mol/cm^3",
    "Temperature of DENL (TDENL)": "2.930000E+02 K",
    "Heat of Vaporizaiton (HVAP)": "4.602400E+04 kJ/kg-mol",
    "Temperature of HVAP (THVAP)": "5.178000E+02 K",
    "Surface Tension (SRF)": "4.050000E+01 dyn/cm",
    "Temperature of SRF (TSRF)": "2.982000E+02 K",
    "Dielectric Constant (DIEL)": NaN,
    "Temperature of DIEL (TDIEL)": NaN,
    "Refractive Index (RFI)": NaN,
    "Temperature of RFI (TRFI)": NaN,
    "Lower Flammability Limit(FLL)": NaN,
    "Upper Flammability Limit(FLU)": NaN,
    "Flash Point (Open Cup Method)": NaN,
    "Flash Point (Closed Cup Method)": NaN,
    "Autoignition Temperature (AIGT)": NaN,
    "NFPA Rating (Health)": 2.0,
    "NFPA Rating (Fire)": 2.0,
    "NFPA Rating (Safety)": NaN,
    "Class": "Aromatics",
    "Subclass": "Polyaromatics",
    "SMILES": "CC1=CC=CC2=CC=CC=C12"
}