{
    "ID": "761",
    "Name": "2-METHYLNAPHTHALENE",
    "Synonyms": "BETA-METHYLNAPHTHALENE",
    "CAS No.": "91-57-6",
    "Formula": "C11H10",
    "Molecular Wt. (WT)": "1.42200E+02",
    "Normal Boiling Point Temp. (TB)": "5.14260E+02 K",
    "Freezing Point Temp. (TF)": "3.07500E+02 K",
    "Triple Point Temp. (TT)": NaN,
    "Triple Point Press. (PT)": NaN,
    "Critical Temperature. (TC)": "7.61000E+02 K",
    "Critical Pressure (PC)": "3.50000E+03 kPa",
    "Critical Volume (VC)": "4.62000E-01 m^3/kg-mol",
    "Critical Compressibility (ZC)": "2.55558E-01",
    "Accentric Factor (ACCF)": "3.82000E-01",
    "Vapor Pressure": {
        "Equation Name": "KDB Correlation Equation",
        "Equation": "ln(Pvp) = A*ln(T) + B/T + C + D*T^2 where Pvp in kPa, T in K",
        "Coefficient A": "-1.511990E+01",
        "Coefficient B": "-1.174505E+04",
        "Coefficient C": "1.201415E+02",
        "Coefficient D": "6.438049E-06",
        "Coefficient E": NaN,
        "Coefficient F": NaN,
        "Coefficient G": NaN,
        "T range, from": "307.73 K",
        "T range, to": "761.00 K"
    },
    "Heat Capacity (Ideal Gas)": {
        "Equation Name": "Polynomial Equation",
        "Equation": "Cp = A + B*T + C*T^2 + D*T^3 + E*T^4  where Cp in kJ/kg-mol , T in K",
        "Coefficient A": "1.656870E+01",
        "Coefficient B": "3.453159E-01",
        "Coefficient C": "6.730444E-04",
        "Coefficient D": "-1.045362E-06",
        "Coefficient E": "3.871288E-10",
        "Coefficient F": NaN,
        "Coefficient G": NaN,
        "T range, from": NaN,
        "T range, to": NaN
    },
    "Heat Capacity (Liquid)": NaN,
    "Viscosity (Gas, Low P)": NaN,
    "Viscosity (Liquid)": NaN,
    "Themal Conductivity (Gas, Low P)": NaN,
    "Themal Conductivity (Liquid)": NaN,
    "Surface Tension": NaN,
    "Partial Molar Volume (VOLP)": "1.436400E-01 m^3/kg-mol",
    "Solubility Parameters (SOLP)": "1.999459E+04 (J/cm^3)^0.5",
    "SRK accentric factor (WSRK)": "3.669000E-01",
    "COSTALD Characteristic Volume (VSTAR)": "4.591000E-01 m^3/kg-mol",
    "Rackett parameter (ZRA)": NaN,
    "Aniline Point (ANP)": NaN,
    "H(formation,ideal gas)at 25 C": "1.162000E+05 kJ/kg-mol",
    "G(formation,ideal gas) at 25 C": "2.163000E+05 kJ/kg-mol",
    "Heat of Combustion, Gross form (HCB1)": NaN,
    "Heat of Combustion, Net form (HCB2)": NaN,
    "Van der Waals Volume (VDWV)": NaN,
    "Van der Waals Area (VDWA)": NaN,
    "UNIQUAC Ri Parameter (RI)": "5.715800E+00",
    "UNIQUAC Qi Parameter (QI)": "4.008000E+00",
    "Dipole Moment (DM)": "4.000000E-01 debye",
    "Radius of Gyration (GYRAD)": NaN,
    "Liquid Density (DENL)": "6.962026E-03 g-mol/cm^3",
    "Temperature of DENL (TDENL)": "3.130000E+02 K",
    "Heat of Vaporizaiton (HVAP)": "4.602400E+04 kJ/kg-mol",
    "Temperature of HVAP (THVAP)": "5.142000E+02 K",
    "Surface Tension (SRF)": "3.210000E+01 dyn/cm",
    "Temperature of SRF (TSRF)": "3.532000E+02 K",
    "Dielectric Constant (DIEL)": NaN,
    "Temperature of DIEL (TDIEL)": NaN,
    "Refractive Index (RFI)": NaN,
    "Temperature of RFI (TRFI)": NaN,
    "Lower Flammability Limit(FLL)": NaN,
    "Upper Flammability Limit(FLU)": NaN,
    "Flash Point (Open Cup Method)": NaN,
    "Flash Point (Closed Cup Method)": NaN,
    "Autoignition Temperature (AIGT)": NaN,
    "NFPA Rating (Health)": NaN,
    "NFPA Rating (Fire)": NaN,
    "NFPA Rating (Safety)": NaN,
    "Class": "Aromatics",
    "Subclass": "Polyaromatics",
    "SMILES": "CC1=CC2=CC=CC=C2C=C1"
}