{
    "ID": "767",
    "Name": "BIPHENYL",
    "Synonyms": "DIPHENYL, BIBENZENE, LEMONENE",
    "CAS No.": "92-52-4",
    "Formula": "C12H10",
    "Molecular Wt. (WT)": "1.54211E+02",
    "Normal Boiling Point Temp. (TB)": "5.29200E+02 K",
    "Freezing Point Temp. (TF)": "3.42000E+02 K",
    "Triple Point Temp. (TT)": NaN,
    "Triple Point Press. (PT)": NaN,
    "Critical Temperature. (TC)": "7.73000E+02 K",
    "Critical Pressure (PC)": "3.38000E+03 kPa",
    "Critical Volume (VC)": "4.97000E-01 m^3/kg-mol",
    "Critical Compressibility (ZC)": "2.61371E-01",
    "Accentric Factor (ACCF)": "3.72000E-01",
    "Vapor Pressure": {
        "Equation Name": "KDB Correlation Equation",
        "Equation": "ln(Pvp) = A*ln(T) + B/T + C + D*T^2 where Pvp in kPa, T in K",
        "Coefficient A": "-1.117108E+01",
        "Coefficient B": "-1.079517E+04",
        "Coefficient C": "9.404742E+01",
        "Coefficient D": "3.863098E-06",
        "Coefficient E": NaN,
        "Coefficient F": NaN,
        "Coefficient G": NaN,
        "T range, from": "342.00 K",
        "T range, to": "789.26 K"
    },
    "Heat Capacity (Ideal Gas)": {
        "Equation Name": "Polynomial Equation",
        "Equation": "Cp = A + B*T + C*T^2 + D*T^3 + E*T^4  where Cp in kJ/kg-mol , T in K",
        "Coefficient A": "-5.107796E+01",
        "Coefficient B": "8.764849E-01",
        "Coefficient C": "-5.034687E-04",
        "Coefficient D": "4.168425E-08",
        "Coefficient E": "3.817529E-11",
        "Coefficient F": NaN,
        "Coefficient G": NaN,
        "T range, from": NaN,
        "T range, to": NaN
    },
    "Heat Capacity (Liquid)": NaN,
    "Viscosity (Gas, Low P)": NaN,
    "Viscosity (Liquid)": {
        "Equation Name": "Andrade Equation",
        "Equation": "ln (VISL) = A + B/ T  where T in K and VISL in cP.",
        "Coefficient A": "-4.572",
        "Coefficient B": "1690",
        "Coefficient C": "0",
        "Coefficient D": "0",
        "Coefficient E": NaN,
        "Coefficient F": NaN,
        "Coefficient G": NaN,
        "T range, from": "343.15 K",
        "T range, to": "723.15 K"
    },
    "Themal Conductivity (Gas, Low P)": NaN,
    "Themal Conductivity (Liquid)": NaN,
    "Surface Tension": NaN,
    "Partial Molar Volume (VOLP)": "1.557700E-01 m^3/kg-mol",
    "Solubility Parameters (SOLP)": "4.018146E+04 (J/cm^3)^0.5",
    "SRK accentric factor (WSRK)": "3.633000E-01",
    "COSTALD Characteristic Volume (VSTAR)": "4.890000E-01 m^3/kg-mol",
    "Rackett parameter (ZRA)": "2.743000E-01",
    "Aniline Point (ANP)": NaN,
    "H(formation,ideal gas)at 25 C": "1.822000E+05 kJ/kg-mol",
    "G(formation,ideal gas) at 25 C": "2.803000E+05 kJ/kg-mol",
    "Heat of Combustion, Gross form (HCB1)": NaN,
    "Heat of Combustion, Net form (HCB2)": NaN,
    "Van der Waals Volume (VDWV)": NaN,
    "Van der Waals Area (VDWA)": NaN,
    "UNIQUAC Ri Parameter (RI)": 6.0434,
    "UNIQUAC Qi Parameter (QI)": 4.24,
    "Dipole Moment (DM)": NaN,
    "Radius of Gyration (GYRAD)": NaN,
    "Liquid Density (DENL)": "6.419776E-03 g-mol/cm^3",
    "Temperature of DENL (TDENL)": "3.470000E+02 K",
    "Heat of Vaporizaiton (HVAP)": "4.560600E+04 kJ/kg-mol",
    "Temperature of HVAP (THVAP)": "5.282000E+02 K",
    "Surface Tension (SRF)": "3.035000E+01 dyn/cm",
    "Temperature of SRF (TSRF)": "3.932000E+02 K",
    "Dielectric Constant (DIEL)": NaN,
    "Temperature of DIEL (TDIEL)": NaN,
    "Refractive Index (RFI)": NaN,
    "Temperature of RFI (TRFI)": NaN,
    "Lower Flammability Limit(FLL)": NaN,
    "Upper Flammability Limit(FLU)": NaN,
    "Flash Point (Open Cup Method)": NaN,
    "Flash Point (Closed Cup Method)": NaN,
    "Autoignition Temperature (AIGT)": NaN,
    "NFPA Rating (Health)": 2.0,
    "NFPA Rating (Fire)": 1.0,
    "NFPA Rating (Safety)": NaN,
    "Class": "Aromatics",
    "Subclass": "Polyaromatics",
    "SMILES": "C1=CC=C(C=C1)C2=CC=CC=C2"
}