{
    "ID": "788",
    "Name": "ANTHRACENE",
    "Synonyms": "GREENOIL, PARANAPHTHALENE, P-NAPHTHALENE",
    "CAS No.": "120-12-7",
    "Formula": "C14H10",
    "Molecular Wt. (WT)": "1.78233E+02",
    "Normal Boiling Point Temp. (TB)": "6.15000E+02 K",
    "Freezing Point Temp. (TF)": "4.89700E+02 K",
    "Triple Point Temp. (TT)": NaN,
    "Triple Point Press. (PT)": NaN,
    "Critical Temperature. (TC)": "8.69300E+02 K",
    "Critical Pressure (PC)": NaN,
    "Critical Volume (VC)": "5.54000E-01 m^3/kg-mol",
    "Critical Compressibility (ZC)": NaN,
    "Accentric Factor (ACCF)": NaN,
    "Vapor Pressure": {
        "Equation Name": "KDB Correlation Equation",
        "Equation": "ln(Pvp) = A*ln(T) + B/T + C + D*T^2 where Pvp in kPa, T in K",
        "Coefficient A": "-1.006000E+01",
        "Coefficient B": "-1.147634E+04",
        "Coefficient C": "8.656524E+01",
        "Coefficient D": "3.459890E-06",
        "Coefficient E": NaN,
        "Coefficient F": NaN,
        "Coefficient G": NaN,
        "T range, from": "453.15 K",
        "T range, to": "873.00 K"
    },
    "Heat Capacity (Ideal Gas)": {
        "Equation Name": "Polynomial Equation",
        "Equation": "Cp = A + B*T + C*T^2 + D*T^3 + E*T^4  where Cp in kJ/kg-mol , T in K",
        "Coefficient A": "-5.830625E+01",
        "Coefficient B": "9.794679E-01",
        "Coefficient C": "-5.352795E-04",
        "Coefficient D": "3.671284E-09",
        "Coefficient E": "5.912895E-11",
        "Coefficient F": NaN,
        "Coefficient G": NaN,
        "T range, from": NaN,
        "T range, to": NaN
    },
    "Heat Capacity (Liquid)": NaN,
    "Viscosity (Gas, Low P)": NaN,
    "Viscosity (Liquid)": NaN,
    "Themal Conductivity (Gas, Low P)": NaN,
    "Themal Conductivity (Liquid)": NaN,
    "Surface Tension": NaN,
    "Partial Molar Volume (VOLP)": "1.389200E-01 m^3/kg-mol",
    "Solubility Parameters (SOLP)": "2.274577E+04 (J/cm^3)^0.5",
    "SRK accentric factor (WSRK)": NaN,
    "COSTALD Characteristic Volume (VSTAR)": NaN,
    "Rackett parameter (ZRA)": NaN,
    "Aniline Point (ANP)": NaN,
    "H(formation,ideal gas)at 25 C": "2.248000E+05 kJ/kg-mol",
    "G(formation,ideal gas) at 25 C": NaN,
    "Heat of Combustion, Gross form (HCB1)": NaN,
    "Heat of Combustion, Net form (HCB2)": NaN,
    "Van der Waals Volume (VDWV)": NaN,
    "Van der Waals Area (VDWA)": NaN,
    "UNIQUAC Ri Parameter (RI)": "6.773800E+00",
    "UNIQUAC Qi Parameter (QI)": "4.480000E+00",
    "Dipole Moment (DM)": "0.000000E+00 debye",
    "Radius of Gyration (GYRAD)": NaN,
    "Liquid Density (DENL)": NaN,
    "Temperature of DENL (TDENL)": NaN,
    "Heat of Vaporizaiton (HVAP)": NaN,
    "Temperature of HVAP (THVAP)": NaN,
    "Surface Tension (SRF)": NaN,
    "Temperature of SRF (TSRF)": NaN,
    "Dielectric Constant (DIEL)": NaN,
    "Temperature of DIEL (TDIEL)": NaN,
    "Refractive Index (RFI)": NaN,
    "Temperature of RFI (TRFI)": NaN,
    "Lower Flammability Limit(FLL)": NaN,
    "Upper Flammability Limit(FLU)": NaN,
    "Flash Point (Open Cup Method)": NaN,
    "Flash Point (Closed Cup Method)": NaN,
    "Autoignition Temperature (AIGT)": "8.131500E+02 K",
    "NFPA Rating (Health)": NaN,
    "NFPA Rating (Fire)": "1",
    "NFPA Rating (Safety)": NaN,
    "Class": "Aromatics",
    "Subclass": "Polyaromatics",
    "SMILES": "C1=CC=C2C=C3C=CC=CC3=CC2=C1"
}