{
    "ID": "8",
    "Name": "N-OCTANE",
    "Synonyms": "OCTANE",
    "CAS No.": "111-65-9",
    "Formula": "C8H18",
    "Molecular Wt. (WT)": "1.14230E+02",
    "Normal Boiling Point Temp. (TB)": "3.98820E+02 K",
    "Freezing Point Temp. (TF)": "2.16300E+02 K",
    "Triple Point Temp. (TT)": "2.16370E+02 K",
    "Triple Point Press. (PT)": NaN,
    "Critical Temperature. (TC)": "5.68700E+02 K",
    "Critical Pressure (PC)": "2.49000E+03 kPa",
    "Critical Volume (VC)": "4.92000E-01 m^3/kg-mol",
    "Critical Compressibility (ZC)": "2.59086E-01",
    "Accentric Factor (ACCF)": "3.98000E-01",
    "Vapor Pressure": {
        "Equation Name": "KDB Correlation Equation",
        "Equation": "ln(Pvp) = A*ln(T) + B/T + C + D*T^2 where Pvp in kPa, T in K",
        "Coefficient A": "-7.378740E+00",
        "Coefficient B": "-6.981936E+03",
        "Coefficient C": "6.577825E+01",
        "Coefficient D": "3.380923E-06",
        "Coefficient E": NaN,
        "Coefficient F": NaN,
        "Coefficient G": NaN,
        "T range, from": "216.38 K",
        "T range, to": "568.83 K"
    },
    "Heat Capacity (Ideal Gas)": {
        "Equation Name": "Polynomial Equation",
        "Equation": "Cp = A + B*T + C*T^2 + D*T^3 + E*T^4  where Cp in kJ/kg-mol , T in K",
        "Coefficient A": "3.720896E+01",
        "Coefficient B": "4.809830E-01",
        "Coefficient C": "2.418717E-04",
        "Coefficient D": "-5.16685E-07",
        "Coefficient E": "1.884531E-10",
        "Coefficient F": NaN,
        "Coefficient G": NaN,
        "T range, from": NaN,
        "T range, to": NaN
    },
    "Heat Capacity (Liquid)": NaN,
    "Viscosity (Gas, Low P)": NaN,
    "Viscosity (Liquid)": {
        "Equation Name": "Andrade Equation",
        "Equation": "ln (VISL) = A + B/ T  where T in K and VISL in cP.",
        "Coefficient A": "-4.333",
        "Coefficient B": "1091",
        "Coefficient C": "0",
        "Coefficient D": "0",
        "Coefficient E": NaN,
        "Coefficient F": NaN,
        "Coefficient G": NaN,
        "T range, from": "218.15 K",
        "T range, to": "398.15 K"
    },
    "Themal Conductivity (Gas, Low P)": NaN,
    "Themal Conductivity (Liquid)": NaN,
    "Surface Tension": NaN,
    "Partial Molar Volume (VOLP)": "1.635400E-01 m^3/kg-mol",
    "Solubility Parameters (SOLP)": "1.544135E+04 (J/cm^3)^0.5",
    "SRK accentric factor (WSRK)": "3.998000E-01",
    "COSTALD Characteristic Volume (VSTAR)": "4.904000E-01 m^3/kg-mol",
    "Rackett parameter (ZRA)": "2.571000E-01",
    "Aniline Point (ANP)": "3.437500E+02 K",
    "H(formation,ideal gas)at 25 C": "-2.086000E+05 kJ/kg-mol",
    "G(formation,ideal gas) at 25 C": "1.640000E+04 kJ/kg-mol",
    "Heat of Combustion, Gross form (HCB1)": "5.470706E+06 kJ/kg-mol",
    "Heat of Combustion, Net form (HCB2)": "5.074565E+06 kJ/kg-mol",
    "Van der Waals Volume (VDWV)": NaN,
    "Van der Waals Area (VDWA)": NaN,
    "UNIQUAC Ri Parameter (RI)": "5.848600E+00",
    "UNIQUAC Qi Parameter (QI)": "4.936000E+00",
    "Dipole Moment (DM)": "0.000000E+00 debye",
    "Radius of Gyration (GYRAD)": "4.680000E+00",
    "Liquid Density (DENL)": "6.154239E-03 g-mol/cm^3",
    "Temperature of DENL (TDENL)": "2.930000E+02 K",
    "Heat of Vaporizaiton (HVAP)": "3.441300E+04 kJ/kg-mol",
    "Temperature of HVAP (THVAP)": "3.988000E+02 K",
    "Surface Tension (SRF)": "2.162000E+01 dyn/cm",
    "Temperature of SRF (TSRF)": "2.932000E+02 K",
    "Dielectric Constant (DIEL)": NaN,
    "Temperature of DIEL (TDIEL)": NaN,
    "Refractive Index (RFI)": "1.395050E+00",
    "Temperature of RFI (TRFI)": "2.981500E+02 K",
    "Lower Flammability Limit(FLL)": "1.000000E+00 % in Air",
    "Upper Flammability Limit(FLU)": "6.500000E+00 % in Air",
    "Flash Point (Open Cup Method)": "2.864833E+02 K",
    "Flash Point (Closed Cup Method)": NaN,
    "Autoignition Temperature (AIGT)": "4.931500E+02 K",
    "NFPA Rating (Health)": NaN,
    "NFPA Rating (Fire)": "3",
    "NFPA Rating (Safety)": NaN,
    "Class": "Paraffinic Hydrocarbons",
    "Subclass": "n-Alkanes",
    "SMILES": "CCCCCCCC"
}