{
    "ID": "817",
    "Name": "METHANOL",
    "Synonyms": "METHYL ALCOHOL, CARBINOL, METHYLHYDROXIDE",
    "CAS No.": "67-56-1",
    "Formula": "CH4O",
    "Molecular Wt. (WT)": "3.20420E+01",
    "Normal Boiling Point Temp. (TB)": "3.37700E+02 K",
    "Freezing Point Temp. (TF)": "1.75470E+02 K",
    "Triple Point Temp. (TT)": "1.75590E+02 K",
    "Triple Point Press. (PT)": NaN,
    "Critical Temperature. (TC)": "5.12500E+02 K",
    "Critical Pressure (PC)": "8.08400E+03 kPa",
    "Critical Volume (VC)": "1.17000E-01 m^3/kg-mol",
    "Critical Compressibility (ZC)": "2.21964E-01",
    "Accentric Factor (ACCF)": "5.56000E-01",
    "Vapor Pressure": {
        "Equation Name": "KDB Correlation Equation",
        "Equation": "ln(Pvp) = A*ln(T) + B/T + C + D*T^2 where Pvp in kPa, T in K",
        "Coefficient A": "-9.372816E+00",
        "Coefficient B": "-7.029198E+03",
        "Coefficient C": "7.909415E+01",
        "Coefficient D": "7.992729E-06",
        "Coefficient E": NaN,
        "Coefficient F": NaN,
        "Coefficient G": NaN,
        "T range, from": "175.47 K",
        "T range, to": "512.58 K"
    },
    "Heat Capacity (Ideal Gas)": {
        "Equation Name": "Polynomial Equation",
        "Equation": "Cp = A + B*T + C*T^2 + D*T^3 + E*T^4  where Cp in kJ/kg-mol , T in K",
        "Coefficient A": "3.437457E+01",
        "Coefficient B": "-1.339835E-02",
        "Coefficient C": "2.156228E-04",
        "Coefficient D": "-2.089914E-07",
        "Coefficient E": "6.21247E-11",
        "Coefficient F": NaN,
        "Coefficient G": NaN,
        "T range, from": NaN,
        "T range, to": NaN
    },
    "Heat Capacity (Liquid)": {
        "Equation Name": "Polynomial Equation",
        "Equation": "Cp = A + B*T + C*T^2 + D*T^3  where T in K and Cp in kJ/kg-mol.K",
        "Coefficient A": "112.3722",
        "Coefficient B": "-.4331599",
        "Coefficient C": "1.112193E-03",
        "Coefficient D": "-2.264336E-08",
        "Coefficient E": NaN,
        "Coefficient F": NaN,
        "Coefficient G": NaN,
        "T range, from": "175.55 K",
        "T range, to": "493.15 K"
    },
    "Viscosity (Gas, Low P)": {
        "Equation Name": "Polynomial Equation",
        "Equation": "VISG = A + B*T + C*T^2 where T in K and VISG in cP",
        "Coefficient A": "-.0005636",
        "Coefficient B": "3.445E-05",
        "Coefficient C": "-3.34E-10",
        "Coefficient D": "0",
        "Coefficient E": NaN,
        "Coefficient F": NaN,
        "Coefficient G": NaN,
        "T range, from": "273.15 K",
        "T range, to": "1173.15 K"
    },
    "Viscosity (Liquid)": {
        "Equation Name": "Quasipolynomial Equation",
        "Equation": "ln (VISL) = A + B/T + C*T + D*T^2  where T in K and VISL in cP.",
        "Coefficient A": "-39.35",
        "Coefficient B": "4826",
        "Coefficient C": ".1091",
        "Coefficient D": "-.0001127",
        "Coefficient E": NaN,
        "Coefficient F": NaN,
        "Coefficient G": NaN,
        "T range, from": "233.15 K",
        "T range, to": "512.15 K"
    },
    "Themal Conductivity (Gas, Low P)": {
        "Equation Name": "Polynomial Equation",
        "Equation": "THG = A + B*T + C*T^2 + D*T^3  where T in K and THG in W/m.K",
        "Coefficient A": "-.007797",
        "Coefficient B": "4.167E-05",
        "Coefficient C": "1.214E-07",
        "Coefficient D": "-5.184E-11",
        "Coefficient E": NaN,
        "Coefficient F": NaN,
        "Coefficient G": NaN,
        "T range, from": "273 K",
        "T range, to": "1270 K"
    },
    "Themal Conductivity (Liquid)": {
        "Equation Name": "Polynomial Equation",
        "Equation": "THL = A + B*T + C*T^2 + D*T^3  where T in K and THL in W/m.K",
        "Coefficient A": ".3225",
        "Coefficient B": "-.0004785",
        "Coefficient C": "1.168E-07",
        "Coefficient D": "0",
        "Coefficient E": NaN,
        "Coefficient F": NaN,
        "Coefficient G": NaN,
        "T range, from": "176 K",
        "T range, to": "483 K"
    },
    "Surface Tension": NaN,
    "Partial Molar Volume (VOLP)": "4.073000E-02 m^3/kg-mol",
    "Solubility Parameters (SOLP)": "2.926881E+04 (J/cm^3)^0.5",
    "SRK accentric factor (WSRK)": "5.536000E-01",
    "COSTALD Characteristic Volume (VSTAR)": "1.198000E-01 m^3/kg-mol",
    "Rackett parameter (ZRA)": "2.364000E-01",
    "Aniline Point (ANP)": NaN,
    "H(formation,ideal gas)at 25 C": "-2.013000E+05 kJ/kg-mol",
    "G(formation,ideal gas) at 25 C": "-1.626000E+05 kJ/kg-mol",
    "Heat of Combustion, Gross form (HCB1)": NaN,
    "Heat of Combustion, Net form (HCB2)": NaN,
    "Van der Waals Volume (VDWV)": NaN,
    "Van der Waals Area (VDWA)": NaN,
    "UNIQUAC Ri Parameter (RI)": "1.431100E+00",
    "UNIQUAC Qi Parameter (QI)": "1.432000E+00",
    "Dipole Moment (DM)": "1.700000E+00 debye",
    "Radius of Gyration (GYRAD)": "1.536000E+00",
    "Liquid Density (DENL)": "2.468635E-02 g-mol/cm^3",
    "Temperature of DENL (TDENL)": "2.930000E+02 K",
    "Heat of Vaporizaiton (HVAP)": "3.525400E+04 kJ/kg-mol",
    "Temperature of HVAP (THVAP)": "3.378000E+02 K",
    "Surface Tension (SRF)": "2.250000E+01 dyn/cm",
    "Temperature of SRF (TSRF)": "2.932000E+02 K",
    "Dielectric Constant (DIEL)": NaN,
    "Temperature of DIEL (TDIEL)": NaN,
    "Refractive Index (RFI)": NaN,
    "Temperature of RFI (TRFI)": NaN,
    "Lower Flammability Limit(FLL)": "6.000000E+00 % in Air",
    "Upper Flammability Limit(FLU)": "3.650000E+01 % in Air",
    "Flash Point (Open Cup Method)": "2.853722E+02 K",
    "Flash Point (Closed Cup Method)": "2.892611E+02 K",
    "Autoignition Temperature (AIGT)": "7.370389E+02 K",
    "NFPA Rating (Health)": "1",
    "NFPA Rating (Fire)": "3",
    "NFPA Rating (Safety)": NaN,
    "Class": "Alcohols",
    "Subclass": "Aliphatic Alcohols",
    "SMILES": "CO"
}