{
    "ID": "818",
    "Name": "ETHANOL",
    "Synonyms": "ETHYL ALCOHOL, ALGRAIN, ALCOHOL ANHYDROUS",
    "CAS No.": "64-17-5",
    "Formula": "C2H6O",
    "Molecular Wt. (WT)": "4.60688E+01",
    "Normal Boiling Point Temp. (TB)": "3.51440E+02 K",
    "Freezing Point Temp. (TF)": "1.59000E+02 K",
    "Triple Point Temp. (TT)": NaN,
    "Triple Point Press. (PT)": NaN,
    "Critical Temperature. (TC)": "5.14000E+02 K",
    "Critical Pressure (PC)": "6.13700E+03 kPa",
    "Critical Volume (VC)": "1.68000E-01 m^3/kg-mol",
    "Critical Compressibility (ZC)": "2.41249E-01",
    "Accentric Factor (ACCF)": "6.44000E-01",
    "Vapor Pressure": {
        "Equation Name": "KDB Correlation Equation",
        "Equation": "ln(Pvp) = A*ln(T) + B/T + C + D*T^2 where Pvp in kPa, T in K",
        "Coefficient A": "-5.089412E+00",
        "Coefficient B": "-6.606453E+03",
        "Coefficient C": "5.317030E+01",
        "Coefficient D": "5.954048E-07",
        "Coefficient E": NaN,
        "Coefficient F": NaN,
        "Coefficient G": NaN,
        "T range, from": "159.05 K",
        "T range, to": "516.25 K"
    },
    "Heat Capacity (Ideal Gas)": {
        "Equation Name": "Polynomial Equation",
        "Equation": "Cp = A + B*T + C*T^2 + D*T^3 + E*T^4  where Cp in kJ/kg-mol , T in K",
        "Coefficient A": "1.995901E+01",
        "Coefficient B": "1.428467E-01",
        "Coefficient C": "7.763252E-05",
        "Coefficient D": "-1.512772E-07",
        "Coefficient E": "5.366231E-11",
        "Coefficient F": NaN,
        "Coefficient G": NaN,
        "T range, from": NaN,
        "T range, to": NaN
    },
    "Heat Capacity (Liquid)": {
        "Equation Name": "Polynomial Equation",
        "Equation": "Cp = A + B*T + C*T^2 + D*T^3  where T in K and Cp in kJ/kg-mol.K",
        "Coefficient A": "-67.44388",
        "Coefficient B": "1.842515",
        "Coefficient C": "-7.297586E-03",
        "Coefficient D": "1.052232E-05",
        "Coefficient E": NaN,
        "Coefficient F": NaN,
        "Coefficient G": NaN,
        "T range, from": "159.05 K",
        "T range, to": "453.15 K"
    },
    "Viscosity (Gas, Low P)": {
        "Equation Name": "Polynomial Equation",
        "Equation": "VISG = A + B*T + C*T^2 where T in K and VISG in cP",
        "Coefficient A": ".0001396",
        "Coefficient B": "2.848E-05",
        "Coefficient C": "1.241E-09",
        "Coefficient D": "0",
        "Coefficient E": NaN,
        "Coefficient F": NaN,
        "Coefficient G": NaN,
        "T range, from": "273.15 K",
        "T range, to": "1273.15 K"
    },
    "Viscosity (Liquid)": {
        "Equation Name": "Quasipolynomial Equation",
        "Equation": "ln (VISL) = A + B/T + C*T + D*T^2  where T in K and VISL in cP.",
        "Coefficient A": "-6.21",
        "Coefficient B": "1614",
        "Coefficient C": ".00618",
        "Coefficient D": "-1.132E-05",
        "Coefficient E": NaN,
        "Coefficient F": NaN,
        "Coefficient G": NaN,
        "T range, from": "168.15 K",
        "T range, to": "516.15 K"
    },
    "Themal Conductivity (Gas, Low P)": {
        "Equation Name": "Polynomial Equation",
        "Equation": "THG = A + B*T + C*T^2 + D*T^3  where T in K and THG in W/m.K",
        "Coefficient A": "-.007797",
        "Coefficient B": "4.167E-05",
        "Coefficient C": "1.214E-07",
        "Coefficient D": "-5.184E-11",
        "Coefficient E": NaN,
        "Coefficient F": NaN,
        "Coefficient G": NaN,
        "T range, from": "273 K",
        "T range, to": "1270 K"
    },
    "Themal Conductivity (Liquid)": {
        "Equation Name": "Polynomial Equation",
        "Equation": "THL = A + B*T + C*T^2 + D*T^3  where T in K and THL in W/m.K",
        "Coefficient A": ".2629",
        "Coefficient B": "-.0003847",
        "Coefficient C": "2.211E-07",
        "Coefficient D": "0",
        "Coefficient E": NaN,
        "Coefficient F": NaN,
        "Coefficient G": NaN,
        "T range, from": "160 K",
        "T range, to": "463 K"
    },
    "Surface Tension": NaN,
    "Partial Molar Volume (VOLP)": "5.868000E-02 m^3/kg-mol",
    "Solubility Parameters (SOLP)": "2.603695E+04 (J/cm^3)^0.5",
    "SRK accentric factor (WSRK)": "6.378000E-01",
    "COSTALD Characteristic Volume (VSTAR)": "1.752000E-01 m^3/kg-mol",
    "Rackett parameter (ZRA)": "2.502000E-01",
    "Aniline Point (ANP)": NaN,
    "H(formation,ideal gas)at 25 C": "-2.350000E+05 kJ/kg-mol",
    "G(formation,ideal gas) at 25 C": "-1.684000E+05 kJ/kg-mol",
    "Heat of Combustion, Gross form (HCB1)": NaN,
    "Heat of Combustion, Net form (HCB2)": NaN,
    "Van der Waals Volume (VDWV)": NaN,
    "Van der Waals Area (VDWA)": NaN,
    "UNIQUAC Ri Parameter (RI)": "2.105500E+00",
    "UNIQUAC Qi Parameter (QI)": "1.972000E+00",
    "Dipole Moment (DM)": "1.700000E+00 debye",
    "Radius of Gyration (GYRAD)": "2.250000E+00",
    "Liquid Density (DENL)": "1.712656E-02 g-mol/cm^3",
    "Temperature of DENL (TDENL)": "2.930000E+02 K",
    "Heat of Vaporizaiton (HVAP)": "3.874400E+04 kJ/kg-mol",
    "Temperature of HVAP (THVAP)": "3.515000E+02 K",
    "Surface Tension (SRF)": "2.239000E+01 dyn/cm",
    "Temperature of SRF (TSRF)": "2.932000E+02 K",
    "Dielectric Constant (DIEL)": NaN,
    "Temperature of DIEL (TDIEL)": NaN,
    "Refractive Index (RFI)": NaN,
    "Temperature of RFI (TRFI)": NaN,
    "Lower Flammability Limit(FLL)": "3.300000E+00 % in Air",
    "Upper Flammability Limit(FLU)": "1.900000E+01 % in Air",
    "Flash Point (Open Cup Method)": "2.859278E+02 K",
    "Flash Point (Closed Cup Method)": "2.909278E+02 K",
    "Autoignition Temperature (AIGT)": "6.381500E+02 K",
    "NFPA Rating (Health)": NaN,
    "NFPA Rating (Fire)": "3",
    "NFPA Rating (Safety)": NaN,
    "Class": "Alcohols",
    "Subclass": "Aliphatic Alcohols",
    "SMILES": "CCO"
}