{
    "ID": "819",
    "Name": "N-PROPANOL",
    "Synonyms": "1-PROPANOL, N-PROPYL ALCOHOL, PROPYL ALCOHOL",
    "CAS No.": "71-23-8",
    "Formula": "C3H8O",
    "Molecular Wt. (WT)": "6.00956E+01",
    "Normal Boiling Point Temp. (TB)": "3.70300E+02 K",
    "Freezing Point Temp. (TF)": "1.47000E+02 K",
    "Triple Point Temp. (TT)": "1.48750E+02 K",
    "Triple Point Press. (PT)": NaN,
    "Critical Temperature. (TC)": "5.36800E+02 K",
    "Critical Pressure (PC)": "5.16900E+03 kPa",
    "Critical Volume (VC)": "2.18000E-01 m^3/kg-mol",
    "Critical Compressibility (ZC)": "2.52472E-01",
    "Accentric Factor (ACCF)": "6.23000E-01",
    "Vapor Pressure": {
        "Equation Name": "KDB Correlation Equation",
        "Equation": "ln(Pvp) = A*ln(T) + B/T + C + D*T^2 where Pvp in kPa, T in K",
        "Coefficient A": "-7.702226E+00",
        "Coefficient B": "-8.002693E+03",
        "Coefficient C": "7.171697E+01",
        "Coefficient D": "3.950448E-07",
        "Coefficient E": NaN,
        "Coefficient F": NaN,
        "Coefficient G": NaN,
        "T range, from": "146.95 K",
        "T range, to": "536.71 K"
    },
    "Heat Capacity (Ideal Gas)": {
        "Equation Name": "Polynomial Equation",
        "Equation": "Cp = A + B*T + C*T^2 + D*T^3 + E*T^4  where Cp in kJ/kg-mol , T in K",
        "Coefficient A": "1.888393E+01",
        "Coefficient B": "2.216399E-01",
        "Coefficient C": "6.182712E-05",
        "Coefficient D": "-1.733102E-07",
        "Coefficient E": "6.408291E-11",
        "Coefficient F": NaN,
        "Coefficient G": NaN,
        "T range, from": NaN,
        "T range, to": NaN
    },
    "Heat Capacity (Liquid)": {
        "Equation Name": "Polynomial Equation",
        "Equation": "Cp = A + B*T + C*T^2 + D*T^3  where T in K and Cp in kJ/kg-mol.K",
        "Coefficient A": "-69.42258",
        "Coefficient B": "2.155595",
        "Coefficient C": "-8.599249E-03",
        "Coefficient D": "1.253428E-05",
        "Coefficient E": NaN,
        "Coefficient F": NaN,
        "Coefficient G": NaN,
        "T range, from": "146.95 K",
        "T range, to": "473.15 K"
    },
    "Viscosity (Gas, Low P)": {
        "Equation Name": "Polynomial Equation",
        "Equation": "VISG = A + B*T + C*T^2 where T in K and VISG in cP",
        "Coefficient A": "-.00207",
        "Coefficient B": "3.144E-05",
        "Coefficient C": "-1.435E-09",
        "Coefficient D": "0",
        "Coefficient E": NaN,
        "Coefficient F": NaN,
        "Coefficient G": NaN,
        "T range, from": "298.15 K",
        "T range, to": "1273.15 K"
    },
    "Viscosity (Liquid)": {
        "Equation Name": "Quasipolynomial Equation",
        "Equation": "ln (VISL) = A + B/T + C*T + D*T^2  where T in K and VISL in cP.",
        "Coefficient A": "-12.28",
        "Coefficient B": "2666",
        "Coefficient C": ".02008",
        "Coefficient D": "-2.233E-05",
        "Coefficient E": NaN,
        "Coefficient F": NaN,
        "Coefficient G": NaN,
        "T range, from": "201.15 K",
        "T range, to": "533.15 K"
    },
    "Themal Conductivity (Gas, Low P)": {
        "Equation Name": "Polynomial Equation",
        "Equation": "THG = A + B*T + C*T^2 + D*T^3  where T in K and THG in W/m.K",
        "Coefficient A": "-7.931001E-03",
        "Coefficient B": "3.987E-05",
        "Coefficient C": "1.193E-07",
        "Coefficient D": "-5.021E-11",
        "Coefficient E": NaN,
        "Coefficient F": NaN,
        "Coefficient G": NaN,
        "T range, from": "273 K",
        "T range, to": "1270 K"
    },
    "Themal Conductivity (Liquid)": {
        "Equation Name": "Polynomial Equation",
        "Equation": "THL = A + B*T + C*T^2 + D*T^3  where T in K and THL in W/m.K",
        "Coefficient A": ".1854",
        "Coefficient B": "-3.366E-05",
        "Coefficient C": "-2.215E-07",
        "Coefficient D": "0",
        "Coefficient E": NaN,
        "Coefficient F": NaN,
        "Coefficient G": NaN,
        "T range, from": "148 K",
        "T range, to": "493 K"
    },
    "Surface Tension": NaN,
    "Partial Molar Volume (VOLP)": "7.514000E-02 m^3/kg-mol",
    "Solubility Parameters (SOLP)": "2.409783E+04 (J/cm^3)^0.5",
    "SRK accentric factor (WSRK)": "6.249000E-01",
    "COSTALD Characteristic Volume (VSTAR)": "2.305000E-01 m^3/kg-mol",
    "Rackett parameter (ZRA)": "2.541000E-01",
    "Aniline Point (ANP)": NaN,
    "H(formation,ideal gas)at 25 C": "-2.566000E+05 kJ/kg-mol",
    "G(formation,ideal gas) at 25 C": "-1.619000E+05 kJ/kg-mol",
    "Heat of Combustion, Gross form (HCB1)": NaN,
    "Heat of Combustion, Net form (HCB2)": NaN,
    "Van der Waals Volume (VDWV)": NaN,
    "Van der Waals Area (VDWA)": NaN,
    "UNIQUAC Ri Parameter (RI)": "2.779900E+00",
    "UNIQUAC Qi Parameter (QI)": "2.512000E+00",
    "Dipole Moment (DM)": "1.700000E+00 debye",
    "Radius of Gyration (GYRAD)": "2.736000E+00",
    "Liquid Density (DENL)": "1.337868E-02 g-mol/cm^3",
    "Temperature of DENL (TDENL)": "2.930000E+02 K",
    "Heat of Vaporizaiton (HVAP)": "4.175600E+04 kJ/kg-mol",
    "Temperature of HVAP (THVAP)": "3.704000E+02 K",
    "Surface Tension (SRF)": "2.371000E+01 dyn/cm",
    "Temperature of SRF (TSRF)": "2.932000E+02 K",
    "Dielectric Constant (DIEL)": NaN,
    "Temperature of DIEL (TDIEL)": NaN,
    "Refractive Index (RFI)": NaN,
    "Temperature of RFI (TRFI)": NaN,
    "Lower Flammability Limit(FLL)": "2.100000E+00 % in Air",
    "Upper Flammability Limit(FLU)": "1.350000E+01 % in Air",
    "Flash Point (Open Cup Method)": "2.981500E+02 K",
    "Flash Point (Closed Cup Method)": "3.003722E+02 K",
    "Autoignition Temperature (AIGT)": "6.442611E+02 K",
    "NFPA Rating (Health)": "1",
    "NFPA Rating (Fire)": "3",
    "NFPA Rating (Safety)": NaN,
    "Class": "Alcohols",
    "Subclass": "Aliphatic Alcohols",
    "SMILES": "CCCO"
}