{
    "ID": "82",
    "Name": "2,2,3-TRIMETHYLHEXANE",
    "Synonyms": NaN,
    "CAS No.": "16747-25-4",
    "Formula": "C9H20",
    "Molecular Wt. (WT)": "1.28257E+02",
    "Normal Boiling Point Temp. (TB)": "4.06800E+02 K",
    "Freezing Point Temp. (TF)": "1.53000E+02 K",
    "Triple Point Temp. (TT)": NaN,
    "Triple Point Press. (PT)": NaN,
    "Critical Temperature. (TC)": "5.88000E+02 K",
    "Critical Pressure (PC)": "2.49000E+03 kPa",
    "Critical Volume (VC)": "4.98900E-01 m^3/kg-mol",
    "Critical Compressibility (ZC)": "2.54097E-01",
    "Accentric Factor (ACCF)": "3.32000E-01",
    "Vapor Pressure": {
        "Equation Name": "KDB Correlation Equation",
        "Equation": "ln(Pvp) = A*ln(T) + B/T + C + D*T^2 where Pvp in kPa, T in K",
        "Coefficient A": "-9.815144E+00",
        "Coefficient B": "-7.588303E+03",
        "Coefficient C": "8.126461E+01",
        "Coefficient D": "5.914354E-06",
        "Coefficient E": NaN,
        "Coefficient F": NaN,
        "Coefficient G": NaN,
        "T range, from": "238.15 K",
        "T range, to": "588.00 K"
    },
    "Heat Capacity (Ideal Gas)": {
        "Equation Name": "Polynomial Equation",
        "Equation": "Cp = A + B*T + C*T^2 + D*T^3 + E*T^4  where Cp in kJ/kg-mol , T in K",
        "Coefficient A": "9.078159E+01",
        "Coefficient B": "1.123647E-01",
        "Coefficient C": "1.527263E-03",
        "Coefficient D": "-2.074223E-06",
        "Coefficient E": "8.257083E-10",
        "Coefficient F": NaN,
        "Coefficient G": NaN,
        "T range, from": NaN,
        "T range, to": NaN
    },
    "Heat Capacity (Liquid)": NaN,
    "Viscosity (Gas, Low P)": NaN,
    "Viscosity (Liquid)": NaN,
    "Themal Conductivity (Gas, Low P)": NaN,
    "Themal Conductivity (Liquid)": NaN,
    "Surface Tension": NaN,
    "Partial Molar Volume (VOLP)": NaN,
    "Solubility Parameters (SOLP)": NaN,
    "SRK accentric factor (WSRK)": "3.349000E-01",
    "COSTALD Characteristic Volume (VSTAR)": "5.283000E-01 m^3/kg-mol",
    "Rackett parameter (ZRA)": NaN,
    "Aniline Point (ANP)": "3.451500E+02 K",
    "H(formation,ideal gas)at 25 C": "-2.414000E+05 kJ/kg-mol",
    "G(formation,ideal gas) at 25 C": "2.453000E+04 kJ/kg-mol",
    "Heat of Combustion, Gross form (HCB1)": "6.117218E+06 kJ/kg-mol",
    "Heat of Combustion, Net form (HCB2)": "5.677102E+06 kJ/kg-mol",
    "Van der Waals Volume (VDWV)": NaN,
    "Van der Waals Area (VDWA)": NaN,
    "UNIQUAC Ri Parameter (RI)": NaN,
    "UNIQUAC Qi Parameter (QI)": NaN,
    "Dipole Moment (DM)": NaN,
    "Radius of Gyration (GYRAD)": NaN,
    "Liquid Density (DENL)": "5.683900E-03 g-mol/cm^3",
    "Temperature of DENL (TDENL)": "2.930000E+02 K",
    "Heat of Vaporizaiton (HVAP)": "3.476900E+04 kJ/kg-mol",
    "Temperature of HVAP (THVAP)": "4.068000E+02 K",
    "Surface Tension (SRF)": "2.142000E+01 dyn/cm",
    "Temperature of SRF (TSRF)": "2.982000E+02 K",
    "Dielectric Constant (DIEL)": NaN,
    "Temperature of DIEL (TDIEL)": NaN,
    "Refractive Index (RFI)": "1.408200E+00",
    "Temperature of RFI (TRFI)": "2.981500E+02 K",
    "Lower Flammability Limit(FLL)": NaN,
    "Upper Flammability Limit(FLU)": NaN,
    "Flash Point (Open Cup Method)": NaN,
    "Flash Point (Closed Cup Method)": NaN,
    "Autoignition Temperature (AIGT)": NaN,
    "NFPA Rating (Health)": NaN,
    "NFPA Rating (Fire)": NaN,
    "NFPA Rating (Safety)": NaN,
    "Class": "Paraffinic Hydrocarbons",
    "Subclass": "Branched Alkanes",
    "SMILES": "CCCC(C)C(C)(C)C"
}