{
    "ID": "820",
    "Name": "ISOPROPANOL",
    "Synonyms": "2-PROPANOL, ISOPROPYL ALCOHOL, SEC-PROPYL ALCOHOL",
    "CAS No.": "67-63-0",
    "Formula": "C3H8O",
    "Molecular Wt. (WT)": "6.00956E+01",
    "Normal Boiling Point Temp. (TB)": "3.55400E+02 K",
    "Freezing Point Temp. (TF)": "1.83600E+02 K",
    "Triple Point Temp. (TT)": NaN,
    "Triple Point Press. (PT)": NaN,
    "Critical Temperature. (TC)": "5.08300E+02 K",
    "Critical Pressure (PC)": "4.76400E+03 kPa",
    "Critical Volume (VC)": "2.22000E-01 m^3/kg-mol",
    "Critical Compressibility (ZC)": "2.50246E-01",
    "Accentric Factor (ACCF)": "6.65000E-01",
    "Vapor Pressure": {
        "Equation Name": "KDB Correlation Equation",
        "Equation": "ln(Pvp) = A*ln(T) + B/T + C + D*T^2 where Pvp in kPa, T in K",
        "Coefficient A": "-7.694051E+00",
        "Coefficient B": "-7.690896E+03",
        "Coefficient C": "7.134113E+01",
        "Coefficient D": "7.656355E-07",
        "Coefficient E": NaN,
        "Coefficient F": NaN,
        "Coefficient G": NaN,
        "T range, from": "185.28 K",
        "T range, to": "508.31 K"
    },
    "Heat Capacity (Ideal Gas)": {
        "Equation Name": "Polynomial Equation",
        "Equation": "Cp = A + B*T + C*T^2 + D*T^3 + E*T^4  where Cp in kJ/kg-mol , T in K",
        "Coefficient A": "2.420838E+01",
        "Coefficient B": "2.088005E-01",
        "Coefficient C": "1.034781E-04",
        "Coefficient D": "-2.321565E-07",
        "Coefficient E": "8.682929E-11",
        "Coefficient F": NaN,
        "Coefficient G": NaN,
        "T range, from": NaN,
        "T range, to": NaN
    },
    "Heat Capacity (Liquid)": NaN,
    "Viscosity (Gas, Low P)": NaN,
    "Viscosity (Liquid)": {
        "Equation Name": "Andrade Equation",
        "Equation": "ln (VISL) = A + B/ T  where T in K and VISL in cP.",
        "Coefficient A": "-8.114",
        "Coefficient B": "2624",
        "Coefficient C": "0",
        "Coefficient D": "0",
        "Coefficient E": NaN,
        "Coefficient F": NaN,
        "Coefficient G": NaN,
        "T range, from": "273.15 K",
        "T range, to": "363.15 K"
    },
    "Themal Conductivity (Gas, Low P)": NaN,
    "Themal Conductivity (Liquid)": NaN,
    "Surface Tension": NaN,
    "Partial Molar Volume (VOLP)": "7.692000E-02 m^3/kg-mol",
    "Solubility Parameters (SOLP)": "2.320805E+04 (J/cm^3)^0.5",
    "SRK accentric factor (WSRK)": "6.637000E-01",
    "COSTALD Characteristic Volume (VSTAR)": "2.313000E-01 m^3/kg-mol",
    "Rackett parameter (ZRA)": "2.493000E-01",
    "Aniline Point (ANP)": NaN,
    "H(formation,ideal gas)at 25 C": "-2.726000E+05 kJ/kg-mol",
    "G(formation,ideal gas) at 25 C": "-1.735000E+05 kJ/kg-mol",
    "Heat of Combustion, Gross form (HCB1)": NaN,
    "Heat of Combustion, Net form (HCB2)": NaN,
    "Van der Waals Volume (VDWV)": NaN,
    "Van der Waals Area (VDWA)": NaN,
    "UNIQUAC Ri Parameter (RI)": "2.779100E+00",
    "UNIQUAC Qi Parameter (QI)": "2.508000E+00",
    "Dipole Moment (DM)": "1.700000E+00 debye",
    "Radius of Gyration (GYRAD)": "2.726000E+00",
    "Liquid Density (DENL)": "1.307916E-02 g-mol/cm^3",
    "Temperature of DENL (TDENL)": "2.930000E+02 K",
    "Heat of Vaporizaiton (HVAP)": "3.983200E+04 kJ/kg-mol",
    "Temperature of HVAP (THVAP)": "3.555000E+02 K",
    "Surface Tension (SRF)": "2.132000E+01 dyn/cm",
    "Temperature of SRF (TSRF)": "2.932000E+02 K",
    "Dielectric Constant (DIEL)": NaN,
    "Temperature of DIEL (TDIEL)": NaN,
    "Refractive Index (RFI)": NaN,
    "Temperature of RFI (TRFI)": NaN,
    "Lower Flammability Limit(FLL)": "2.300000E+00 % in Air",
    "Upper Flammability Limit(FLU)": "1.270000E+01 % in Air",
    "Flash Point (Open Cup Method)": "2.848167E+02 K",
    "Flash Point (Closed Cup Method)": "2.914833E+02 K",
    "Autoignition Temperature (AIGT)": "6.720389E+02 K",
    "NFPA Rating (Health)": "1",
    "NFPA Rating (Fire)": "3",
    "NFPA Rating (Safety)": NaN,
    "Class": "Alcohols",
    "Subclass": "Aliphatic Alcohols",
    "SMILES": "CC(C)O"
}