{
    "ID": "821",
    "Name": "N-BUTANOL",
    "Synonyms": "1-BUTANOL, N-BUTYL ALCOHOL, METHYLOLPROPANE",
    "CAS No.": "71-36-3",
    "Formula": "C4H10O",
    "Molecular Wt. (WT)": "7.41224E+01",
    "Normal Boiling Point Temp. (TB)": "3.90880E+02 K",
    "Freezing Point Temp. (TF)": "1.83300E+02 K",
    "Triple Point Temp. (TT)": "1.84510E+02 K",
    "Triple Point Press. (PT)": NaN,
    "Critical Temperature. (TC)": "5.63000E+02 K",
    "Critical Pressure (PC)": "4.41400E+03 kPa",
    "Critical Volume (VC)": "2.74000E-01 m^3/kg-mol",
    "Critical Compressibility (ZC)": "2.58367E-01",
    "Accentric Factor (ACCF)": "5.93000E-01",
    "Vapor Pressure": {
        "Equation Name": "KDB Correlation Equation",
        "Equation": "ln(Pvp) = A*ln(T) + B/T + C + D*T^2 where Pvp in kPa, T in K",
        "Coefficient A": "-9.882614E+00",
        "Coefficient B": "-9.127496E+03",
        "Coefficient C": "8.672214E+01",
        "Coefficient D": "1.428480E-06",
        "Coefficient E": NaN,
        "Coefficient F": NaN,
        "Coefficient G": NaN,
        "T range, from": "183.85 K",
        "T range, to": "563.00 K"
    },
    "Heat Capacity (Ideal Gas)": {
        "Equation Name": "Polynomial Equation",
        "Equation": "Cp = A + B*T + C*T^2 + D*T^3 + E*T^4  where Cp in kJ/kg-mol , T in K",
        "Coefficient A": "1.170724E+01",
        "Coefficient B": "3.459664E-01",
        "Coefficient C": "-2.512073E-05",
        "Coefficient D": "-1.514838E-07",
        "Coefficient E": "6.499044E-11",
        "Coefficient F": NaN,
        "Coefficient G": NaN,
        "T range, from": NaN,
        "T range, to": NaN
    },
    "Heat Capacity (Liquid)": {
        "Equation Name": "Polynomial Equation",
        "Equation": "Cp = A + B*T + C*T^2 + D*T^3  where T in K and Cp in kJ/kg-mol.K",
        "Coefficient A": "-235.2942",
        "Coefficient B": "4.022362",
        "Coefficient C": "-1.430311E-02",
        "Coefficient D": "1.817041E-05",
        "Coefficient E": NaN,
        "Coefficient F": NaN,
        "Coefficient G": NaN,
        "T range, from": "183.85 K",
        "T range, to": "473.15 K"
    },
    "Viscosity (Gas, Low P)": {
        "Equation Name": "Polynomial Equation",
        "Equation": "VISG = A + B*T + C*T^2 where T in K and VISG in cP",
        "Coefficient A": "-.001843",
        "Coefficient B": "2.867E-05",
        "Coefficient C": "-1.048E-09",
        "Coefficient D": "0",
        "Coefficient E": NaN,
        "Coefficient F": NaN,
        "Coefficient G": NaN,
        "T range, from": "298.15 K",
        "T range, to": "1273.15 K"
    },
    "Viscosity (Liquid)": {
        "Equation Name": "Quasipolynomial Equation",
        "Equation": "ln (VISL) = A + B/T + C*T + D*T^2  where T in K and VISL in cP.",
        "Coefficient A": "-9.722",
        "Coefficient B": "2602",
        "Coefficient C": "9.529999E-03",
        "Coefficient D": "-9.965999E-06",
        "Coefficient E": NaN,
        "Coefficient F": NaN,
        "Coefficient G": NaN,
        "T range, from": "213.15 K",
        "T range, to": "562.15 K"
    },
    "Themal Conductivity (Gas, Low P)": {
        "Equation Name": "Polynomial Equation",
        "Equation": "THG = A + B*T + C*T^2 + D*T^3  where T in K and THG in W/m.K",
        "Coefficient A": "-.007772",
        "Coefficient B": "3.564E-05",
        "Coefficient C": "1.206E-07",
        "Coefficient D": "-4.992E-11",
        "Coefficient E": NaN,
        "Coefficient F": NaN,
        "Coefficient G": NaN,
        "T range, from": "273 K",
        "T range, to": "1270 K"
    },
    "Themal Conductivity (Liquid)": {
        "Equation Name": "Polynomial Equation",
        "Equation": "THL = A + B*T + C*T^2 + D*T^3  where T in K and THL in W/m.K",
        "Coefficient A": ".2288",
        "Coefficient B": "-.0002697",
        "Coefficient C": "1.323E-08",
        "Coefficient D": "0",
        "Coefficient E": NaN,
        "Coefficient F": NaN,
        "Coefficient G": NaN,
        "T range, from": "184 K",
        "T range, to": "503 K"
    },
    "Surface Tension": NaN,
    "Partial Molar Volume (VOLP)": "9.197000E-02 m^3/kg-mol",
    "Solubility Parameters (SOLP)": "2.313646E+04 (J/cm^3)^0.5",
    "SRK accentric factor (WSRK)": "5.928000E-01",
    "COSTALD Characteristic Volume (VSTAR)": "2.841000E-01 m^3/kg-mol",
    "Rackett parameter (ZRA)": "2.538000E-01",
    "Aniline Point (ANP)": NaN,
    "H(formation,ideal gas)at 25 C": "-2.749000E+05 kJ/kg-mol",
    "G(formation,ideal gas) at 25 C": "-1.509000E+05 kJ/kg-mol",
    "Heat of Combustion, Gross form (HCB1)": NaN,
    "Heat of Combustion, Net form (HCB2)": NaN,
    "Van der Waals Volume (VDWV)": NaN,
    "Van der Waals Area (VDWA)": NaN,
    "UNIQUAC Ri Parameter (RI)": "3.454300E+00",
    "UNIQUAC Qi Parameter (QI)": "3.052000E+00",
    "Dipole Moment (DM)": "1.800000E+00 debye",
    "Radius of Gyration (GYRAD)": "3.225000E+00",
    "Liquid Density (DENL)": "1.092787E-02 g-mol/cm^3",
    "Temperature of DENL (TDENL)": "2.930000E+02 K",
    "Heat of Vaporizaiton (HVAP)": "4.309500E+04 kJ/kg-mol",
    "Temperature of HVAP (THVAP)": "3.906000E+02 K",
    "Surface Tension (SRF)": "2.539000E+01 dyn/cm",
    "Temperature of SRF (TSRF)": "2.932000E+02 K",
    "Dielectric Constant (DIEL)": NaN,
    "Temperature of DIEL (TDIEL)": NaN,
    "Refractive Index (RFI)": NaN,
    "Temperature of RFI (TRFI)": NaN,
    "Lower Flammability Limit(FLL)": "1.400000E+00 % in Air",
    "Upper Flammability Limit(FLU)": "1.120000E+01 % in Air",
    "Flash Point (Open Cup Method)": "3.020389E+02 K",
    "Flash Point (Closed Cup Method)": "3.092611E+02 K",
    "Autoignition Temperature (AIGT)": "6.164833E+02 K",
    "NFPA Rating (Health)": "1",
    "NFPA Rating (Fire)": "3",
    "NFPA Rating (Safety)": NaN,
    "Class": "Alcohols",
    "Subclass": "Aliphatic Alcohols",
    "SMILES": "CCCCO"
}