{
    "ID": "822",
    "Name": "ISOBUTANOL",
    "Synonyms": "ISOBUTYL ALCOHOL, 2-METHYL-1-PROPANOL, ISOPROPYLCARBINOL",
    "CAS No.": "78-83-1",
    "Formula": "C4H10O",
    "Molecular Wt. (WT)": "7.41224E+01",
    "Normal Boiling Point Temp. (TB)": "3.81040E+02 K",
    "Freezing Point Temp. (TF)": "1.65000E+02 K",
    "Triple Point Temp. (TT)": "1.71180E+02 K",
    "Triple Point Press. (PT)": NaN,
    "Critical Temperature. (TC)": "5.47800E+02 K",
    "Critical Pressure (PC)": "4.29500E+03 kPa",
    "Critical Volume (VC)": "2.74000E-01 m^3/kg-mol",
    "Critical Compressibility (ZC)": "2.58378E-01",
    "Accentric Factor (ACCF)": "5.92000E-01",
    "Vapor Pressure": {
        "Equation Name": "KDB Correlation Equation",
        "Equation": "ln(Pvp) = A*ln(T) + B/T + C + D*T^2 where Pvp in kPa, T in K",
        "Coefficient A": "-2.961931E+01",
        "Coefficient B": "-1.410620E+04",
        "Coefficient C": "2.145658E+02",
        "Coefficient D": "2.126631E-05",
        "Coefficient E": NaN,
        "Coefficient F": NaN,
        "Coefficient G": NaN,
        "T range, from": "165.15 K",
        "T range, to": "547.73 K"
    },
    "Heat Capacity (Ideal Gas)": {
        "Equation Name": "Polynomial Equation",
        "Equation": "Cp = A + B*T + C*T^2 + D*T^3 + E*T^4  where Cp in kJ/kg-mol , T in K",
        "Coefficient A": "-7.708000E+00",
        "Coefficient B": "4.689000E-01",
        "Coefficient C": "-2.884000E-04",
        "Coefficient D": "7.231E-08",
        "Coefficient E": "0",
        "Coefficient F": NaN,
        "Coefficient G": NaN,
        "T range, from": NaN,
        "T range, to": NaN
    },
    "Heat Capacity (Liquid)": NaN,
    "Viscosity (Gas, Low P)": NaN,
    "Viscosity (Liquid)": {
        "Equation Name": "Andrade Equation",
        "Equation": "ln (VISL) = A + B/ T  where T in K and VISL in cP.",
        "Coefficient A": "-8.163",
        "Coefficient B": "2789",
        "Coefficient C": "0",
        "Coefficient D": "0",
        "Coefficient E": NaN,
        "Coefficient F": NaN,
        "Coefficient G": NaN,
        "T range, from": "273.15 K",
        "T range, to": "383.15 K"
    },
    "Themal Conductivity (Gas, Low P)": NaN,
    "Themal Conductivity (Liquid)": NaN,
    "Surface Tension": NaN,
    "Partial Molar Volume (VOLP)": "9.291000E-02 m^3/kg-mol",
    "Solubility Parameters (SOLP)": "2.254531E+04 (J/cm^3)^0.5",
    "SRK accentric factor (WSRK)": "5.883000E-01",
    "COSTALD Characteristic Volume (VSTAR)": "2.730000E-01 m^3/kg-mol",
    "Rackett parameter (ZRA)": "2.590000E-01",
    "Aniline Point (ANP)": NaN,
    "H(formation,ideal gas)at 25 C": "-2.834000E+05 kJ/kg-mol",
    "G(formation,ideal gas) at 25 C": "-1.674000E+05 kJ/kg-mol",
    "Heat of Combustion, Gross form (HCB1)": NaN,
    "Heat of Combustion, Net form (HCB2)": NaN,
    "Van der Waals Volume (VDWV)": NaN,
    "Van der Waals Area (VDWA)": NaN,
    "UNIQUAC Ri Parameter (RI)": "3.453500E+00",
    "UNIQUAC Qi Parameter (QI)": "3.048000E+00",
    "Dipole Moment (DM)": "1.700000E+00 debye",
    "Radius of Gyration (GYRAD)": "3.140000E+00",
    "Liquid Density (DENL)": "1.081994E-02 g-mol/cm^3",
    "Temperature of DENL (TDENL)": "2.930000E+02 K",
    "Heat of Vaporizaiton (HVAP)": NaN,
    "Temperature of HVAP (THVAP)": NaN,
    "Surface Tension (SRF)": NaN,
    "Temperature of SRF (TSRF)": NaN,
    "Dielectric Constant (DIEL)": NaN,
    "Temperature of DIEL (TDIEL)": NaN,
    "Refractive Index (RFI)": NaN,
    "Temperature of RFI (TRFI)": NaN,
    "Lower Flammability Limit(FLL)": "1.600000E+00 % in Air",
    "Upper Flammability Limit(FLU)": "1.090000E+01 % in Air",
    "Flash Point (Open Cup Method)": "3.009278E+02 K",
    "Flash Point (Closed Cup Method)": "3.053722E+02 K",
    "Autoignition Temperature (AIGT)": "6.998167E+02 K",
    "NFPA Rating (Health)": "1",
    "NFPA Rating (Fire)": "3",
    "NFPA Rating (Safety)": NaN,
    "Class": "Alcohols",
    "Subclass": "Aliphatic Alcohols",
    "SMILES": "CC(C)CO"
}