{
    "ID": "823",
    "Name": "SEC-BUTANOL",
    "Synonyms": "2-BUTANOL, SEC-BUTYL ALCOHOL, METHYLETHYLCARBINOL",
    "CAS No.": "78-92-2",
    "Formula": "C4H10O",
    "Molecular Wt. (WT)": "7.41224E+01",
    "Normal Boiling Point Temp. (TB)": "3.72660E+02 K",
    "Freezing Point Temp. (TF)": "1.58400E+02 K",
    "Triple Point Temp. (TT)": NaN,
    "Triple Point Press. (PT)": NaN,
    "Critical Temperature. (TC)": "5.36200E+02 K",
    "Critical Pressure (PC)": "4.20200E+03 kPa",
    "Critical Volume (VC)": "2.69000E-01 m^3/kg-mol",
    "Critical Compressibility (ZC)": "2.53539E-01",
    "Accentric Factor (ACCF)": "5.77000E-01",
    "Vapor Pressure": {
        "Equation Name": "KDB Correlation Equation",
        "Equation": "ln(Pvp) = A*ln(T) + B/T + C + D*T^2 where Pvp in kPa, T in K",
        "Coefficient A": "-1.248509E+01",
        "Coefficient B": "-9.518041E+03",
        "Coefficient C": "1.036330E+02",
        "Coefficient D": "3.342489E-06",
        "Coefficient E": NaN,
        "Coefficient F": NaN,
        "Coefficient G": NaN,
        "T range, from": "158.45 K",
        "T range, to": "536.01 K"
    },
    "Heat Capacity (Ideal Gas)": {
        "Equation Name": "Polynomial Equation",
        "Equation": "Cp = A + B*T + C*T^2 + D*T^3 + E*T^4  where Cp in kJ/kg-mol , T in K",
        "Coefficient A": "2.877576E+01",
        "Coefficient B": "2.960246E-01",
        "Coefficient C": "2.319625E-06",
        "Coefficient D": "-1.277103E-07",
        "Coefficient E": "4.693169E-11",
        "Coefficient F": NaN,
        "Coefficient G": NaN,
        "T range, from": NaN,
        "T range, to": NaN
    },
    "Heat Capacity (Liquid)": NaN,
    "Viscosity (Gas, Low P)": NaN,
    "Viscosity (Liquid)": NaN,
    "Themal Conductivity (Gas, Low P)": NaN,
    "Themal Conductivity (Liquid)": NaN,
    "Surface Tension": NaN,
    "Partial Molar Volume (VOLP)": "9.235000E-02 m^3/kg-mol",
    "Solubility Parameters (SOLP)": NaN,
    "SRK accentric factor (WSRK)": "5.792000E-01",
    "COSTALD Characteristic Volume (VSTAR)": "2.803000E-01 m^3/kg-mol",
    "Rackett parameter (ZRA)": "2.565000E-01",
    "Aniline Point (ANP)": NaN,
    "H(formation,ideal gas)at 25 C": "-2.928000E+05 kJ/kg-mol",
    "G(formation,ideal gas) at 25 C": "-1.677000E+05 kJ/kg-mol",
    "Heat of Combustion, Gross form (HCB1)": NaN,
    "Heat of Combustion, Net form (HCB2)": NaN,
    "Van der Waals Volume (VDWV)": NaN,
    "Van der Waals Area (VDWA)": NaN,
    "UNIQUAC Ri Parameter (RI)": "3.453500E+00",
    "UNIQUAC Qi Parameter (QI)": "3.048000E+00",
    "Dipole Moment (DM)": "1.700000E+00 debye",
    "Radius of Gyration (GYRAD)": "3.182000E+00",
    "Liquid Density (DENL)": "1.088740E-02 g-mol/cm^3",
    "Temperature of DENL (TDENL)": "2.930000E+02 K",
    "Heat of Vaporizaiton (HVAP)": "4.079400E+04 kJ/kg-mol",
    "Temperature of HVAP (THVAP)": "3.728000E+02 K",
    "Surface Tension (SRF)": "2.294000E+01 dyn/cm",
    "Temperature of SRF (TSRF)": "2.932000E+02 K",
    "Dielectric Constant (DIEL)": NaN,
    "Temperature of DIEL (TDIEL)": NaN,
    "Refractive Index (RFI)": NaN,
    "Temperature of RFI (TRFI)": NaN,
    "Lower Flammability Limit(FLL)": "1.700000E+00 % in Air",
    "Upper Flammability Limit(FLU)": "9.000000E+00 % in Air",
    "Flash Point (Open Cup Method)": "2.970389E+02 K",
    "Flash Point (Closed Cup Method)": NaN,
    "Autoignition Temperature (AIGT)": "6.792611E+02 K",
    "NFPA Rating (Health)": NaN,
    "NFPA Rating (Fire)": NaN,
    "NFPA Rating (Safety)": NaN,
    "Class": "Alcohols",
    "Subclass": "Aliphatic Alcohols",
    "SMILES": "CCC(C)O"
}