{
    "ID": "824",
    "Name": "TERT-BUTANOL",
    "Synonyms": "TERT-BUTYL ALCOHOL, 2-METHYL-2-PROPANOL, TRIMETHYLMETHANOL",
    "CAS No.": "75-65-0",
    "Formula": "C4H10O",
    "Molecular Wt. (WT)": "7.41224E+01",
    "Normal Boiling Point Temp. (TB)": "3.55500E+02 K",
    "Freezing Point Temp. (TF)": "2.98500E+02 K",
    "Triple Point Temp. (TT)": NaN,
    "Triple Point Press. (PT)": NaN,
    "Critical Temperature. (TC)": "5.06200E+02 K",
    "Critical Pressure (PC)": "3.97200E+03 kPa",
    "Critical Volume (VC)": "2.75000E-01 m^3/kg-mol",
    "Critical Compressibility (ZC)": "2.59527E-01",
    "Accentric Factor (ACCF)": "6.12000E-01",
    "Vapor Pressure": {
        "Equation Name": "KDB Correlation Equation",
        "Equation": "ln(Pvp) = A*ln(T) + B/T + C + D*T^2 where Pvp in kPa, T in K",
        "Coefficient A": "-1.062327E+01",
        "Coefficient B": "-8.702163E+03",
        "Coefficient C": "9.134458E+01",
        "Coefficient D": "1.152096E-06",
        "Coefficient E": NaN,
        "Coefficient F": NaN,
        "Coefficient G": NaN,
        "T range, from": "293.00 K",
        "T range, to": "506.20 K"
    },
    "Heat Capacity (Ideal Gas)": {
        "Equation Name": "Polynomial Equation",
        "Equation": "Cp = A + B*T + C*T^2 + D*T^3 + E*T^4  where Cp in kJ/kg-mol , T in K",
        "Coefficient A": "1.472024E+01",
        "Coefficient B": "4.054233E-01",
        "Coefficient C": "-2.520639E-04",
        "Coefficient D": "1.119067E-07",
        "Coefficient E": "-3.097044E-11",
        "Coefficient F": NaN,
        "Coefficient G": NaN,
        "T range, from": NaN,
        "T range, to": NaN
    },
    "Heat Capacity (Liquid)": NaN,
    "Viscosity (Gas, Low P)": NaN,
    "Viscosity (Liquid)": NaN,
    "Themal Conductivity (Gas, Low P)": NaN,
    "Themal Conductivity (Liquid)": NaN,
    "Surface Tension": NaN,
    "Partial Molar Volume (VOLP)": "9.488000E-02 m^3/kg-mol",
    "Solubility Parameters (SOLP)": "2.113597E+04 (J/cm^3)^0.5",
    "SRK accentric factor (WSRK)": "6.134000E-01",
    "COSTALD Characteristic Volume (VSTAR)": "2.876000E-01 m^3/kg-mol",
    "Rackett parameter (ZRA)": "2.570000E-01",
    "Aniline Point (ANP)": NaN,
    "H(formation,ideal gas)at 25 C": "-3.128000E+05 kJ/kg-mol",
    "G(formation,ideal gas) at 25 C": "-1.788000E+05 kJ/kg-mol",
    "Heat of Combustion, Gross form (HCB1)": NaN,
    "Heat of Combustion, Net form (HCB2)": NaN,
    "Van der Waals Volume (VDWV)": NaN,
    "Van der Waals Area (VDWA)": NaN,
    "UNIQUAC Ri Parameter (RI)": "3.452800E+00",
    "UNIQUAC Qi Parameter (QI)": "3.128000E+00",
    "Dipole Moment (DM)": "1.700000E+00 debye",
    "Radius of Gyration (GYRAD)": "3.019000E+00",
    "Liquid Density (DENL)": "1.061757E-02 g-mol/cm^3",
    "Temperature of DENL (TDENL)": "2.930000E+02 K",
    "Heat of Vaporizaiton (HVAP)": "3.903700E+04 kJ/kg-mol",
    "Temperature of HVAP (THVAP)": "3.559000E+02 K",
    "Surface Tension (SRF)": "1.816000E+01 dyn/cm",
    "Temperature of SRF (TSRF)": "3.182000E+02 K",
    "Dielectric Constant (DIEL)": NaN,
    "Temperature of DIEL (TDIEL)": NaN,
    "Refractive Index (RFI)": NaN,
    "Temperature of RFI (TRFI)": NaN,
    "Lower Flammability Limit(FLL)": "2.350000E+00 % in Air",
    "Upper Flammability Limit(FLU)": "8.000000E+00 % in Air",
    "Flash Point (Open Cup Method)": "2.842611E+02 K",
    "Flash Point (Closed Cup Method)": "2.892611E+02 K",
    "Autoignition Temperature (AIGT)": "7.531500E+02 K",
    "NFPA Rating (Health)": "1",
    "NFPA Rating (Fire)": "3",
    "NFPA Rating (Safety)": NaN,
    "Class": "Alcohols",
    "Subclass": "Aliphatic Alcohols",
    "SMILES": "CC(C)(C)O"
}