{
    "ID": "825",
    "Name": "N-PENTANOL",
    "Synonyms": "1-PENTANOL, N-PENTYL ALCOHOL, N-AMYL ALCOHOL",
    "CAS No.": "71-41-0",
    "Formula": "C5H12O",
    "Molecular Wt. (WT)": "8.81492E+01",
    "Normal Boiling Point Temp. (TB)": "4.11130E+02 K",
    "Freezing Point Temp. (TF)": "1.94200E+02 K",
    "Triple Point Temp. (TT)": "1.95560E+02 K",
    "Triple Point Press. (PT)": NaN,
    "Critical Temperature. (TC)": "5.88100E+02 K",
    "Critical Pressure (PC)": "3.89700E+03 kPa",
    "Critical Volume (VC)": "3.26000E-01 m^3/kg-mol",
    "Critical Compressibility (ZC)": "2.59813E-01",
    "Accentric Factor (ACCF)": "5.79000E-01",
    "Vapor Pressure": {
        "Equation Name": "KDB Correlation Equation",
        "Equation": "ln(Pvp) = A*ln(T) + B/T + C + D*T^2 where Pvp in kPa, T in K",
        "Coefficient A": "-1.938194E+01",
        "Coefficient B": "-1.219640E+04",
        "Coefficient C": "1.493463E+02",
        "Coefficient D": "9.395708E-06",
        "Coefficient E": NaN,
        "Coefficient F": NaN,
        "Coefficient G": NaN,
        "T range, from": "195.56 K",
        "T range, to": "588.00 K"
    },
    "Heat Capacity (Ideal Gas)": {
        "Equation Name": "Polynomial Equation",
        "Equation": "Cp = A + B*T + C*T^2 + D*T^3 + E*T^4  where Cp in kJ/kg-mol , T in K",
        "Coefficient A": "3.869000E+00",
        "Coefficient B": "5.045000E-01",
        "Coefficient C": "-2.639000E-04",
        "Coefficient D": "5.12E-08",
        "Coefficient E": "0",
        "Coefficient F": NaN,
        "Coefficient G": NaN,
        "T range, from": NaN,
        "T range, to": NaN
    },
    "Heat Capacity (Liquid)": NaN,
    "Viscosity (Gas, Low P)": NaN,
    "Viscosity (Liquid)": {
        "Equation Name": "Andrade Equation",
        "Equation": "ln (VISL) = A + B/ T  where T in K and VISL in cP.",
        "Coefficient A": "-7.581",
        "Coefficient B": "2651",
        "Coefficient C": "0",
        "Coefficient D": "0",
        "Coefficient E": NaN,
        "Coefficient F": NaN,
        "Coefficient G": NaN,
        "T range, from": "273.15 K",
        "T range, to": "413.15 K"
    },
    "Themal Conductivity (Gas, Low P)": NaN,
    "Themal Conductivity (Liquid)": NaN,
    "Surface Tension": NaN,
    "Partial Molar Volume (VOLP)": "1.086300E-01 m^3/kg-mol",
    "Solubility Parameters (SOLP)": "2.258213E+04 (J/cm^3)^0.5",
    "SRK accentric factor (WSRK)": "5.975000E-01",
    "COSTALD Characteristic Volume (VSTAR)": "3.437000E-01 m^3/kg-mol",
    "Rackett parameter (ZRA)": "2.596000E-01",
    "Aniline Point (ANP)": NaN,
    "H(formation,ideal gas)at 25 C": "-2.989000E+05 kJ/kg-mol",
    "G(formation,ideal gas) at 25 C": "-1.461000E+05 kJ/kg-mol",
    "Heat of Combustion, Gross form (HCB1)": NaN,
    "Heat of Combustion, Net form (HCB2)": NaN,
    "Van der Waals Volume (VDWV)": NaN,
    "Van der Waals Area (VDWA)": NaN,
    "UNIQUAC Ri Parameter (RI)": "4.128700E+00",
    "UNIQUAC Qi Parameter (QI)": "3.592000E+00",
    "Dipole Moment (DM)": "1.700000E+00 debye",
    "Radius of Gyration (GYRAD)": NaN,
    "Liquid Density (DENL)": "9.245688E-03 g-mol/cm^3",
    "Temperature of DENL (TDENL)": "2.930000E+02 K",
    "Heat of Vaporizaiton (HVAP)": "4.435000E+04 kJ/kg-mol",
    "Temperature of HVAP (THVAP)": "4.109000E+02 K",
    "Surface Tension (SRF)": "2.579000E+01 dyn/cm",
    "Temperature of SRF (TSRF)": "2.932000E+02 K",
    "Dielectric Constant (DIEL)": NaN,
    "Temperature of DIEL (TDIEL)": NaN,
    "Refractive Index (RFI)": NaN,
    "Temperature of RFI (TRFI)": NaN,
    "Lower Flammability Limit(FLL)": "1.100000E+00 % in Air",
    "Upper Flammability Limit(FLU)": "7.500000E+00 % in Air",
    "Flash Point (Open Cup Method)": "2.981500E+02 K",
    "Flash Point (Closed Cup Method)": NaN,
    "Autoignition Temperature (AIGT)": "6.331500E+02 K",
    "NFPA Rating (Health)": "1",
    "NFPA Rating (Fire)": "3",
    "NFPA Rating (Safety)": NaN,
    "Class": "Alcohols",
    "Subclass": "Aliphatic Alcohols",
    "SMILES": "CCCCCO"
}