{
    "ID": "83",
    "Name": "2,2,4-TRIMETHYLHEXANE",
    "Synonyms": NaN,
    "CAS No.": "16747-26-5",
    "Formula": "C9H20",
    "Molecular Wt. (WT)": "1.28257E+02",
    "Normal Boiling Point Temp. (TB)": "3.99700E+02 K",
    "Freezing Point Temp. (TF)": "1.53000E+02 K",
    "Triple Point Temp. (TT)": NaN,
    "Triple Point Press. (PT)": NaN,
    "Critical Temperature. (TC)": "5.73700E+02 K",
    "Critical Pressure (PC)": "2.38000E+03 kPa",
    "Critical Volume (VC)": "5.06600E-01 m^3/kg-mol",
    "Critical Compressibility (ZC)": "2.52767E-01",
    "Accentric Factor (ACCF)": "3.21000E-01",
    "Vapor Pressure": {
        "Equation Name": "KDB Correlation Equation",
        "Equation": "ln(Pvp) = A*ln(T) + B/T + C + D*T^2 where Pvp in kPa, T in K",
        "Coefficient A": "-1.135433E+01",
        "Coefficient B": "-7.880895E+03",
        "Coefficient C": "9.114302E+01",
        "Coefficient D": "7.592179E-06",
        "Coefficient E": NaN,
        "Coefficient F": NaN,
        "Coefficient G": NaN,
        "T range, from": "291.00 K",
        "T range, to": "573.50 K"
    },
    "Heat Capacity (Ideal Gas)": {
        "Equation Name": "Polynomial Equation",
        "Equation": "Cp = A + B*T + C*T^2 + D*T^3 + E*T^4  where Cp in kJ/kg-mol , T in K",
        "Coefficient A": "-6.031000E+01",
        "Coefficient B": "1.104000E+00",
        "Coefficient C": "-7.712000E-04",
        "Coefficient D": "2.188E-07",
        "Coefficient E": "0",
        "Coefficient F": NaN,
        "Coefficient G": NaN,
        "T range, from": NaN,
        "T range, to": NaN
    },
    "Heat Capacity (Liquid)": NaN,
    "Viscosity (Gas, Low P)": NaN,
    "Viscosity (Liquid)": NaN,
    "Themal Conductivity (Gas, Low P)": NaN,
    "Themal Conductivity (Liquid)": NaN,
    "Surface Tension": NaN,
    "Partial Molar Volume (VOLP)": NaN,
    "Solubility Parameters (SOLP)": "1.456179E+04 (J/cm^3)^0.5",
    "SRK accentric factor (WSRK)": "3.481000E-01",
    "COSTALD Characteristic Volume (VSTAR)": "5.361000E-01 m^3/kg-mol",
    "Rackett parameter (ZRA)": NaN,
    "Aniline Point (ANP)": "3.511500E+02 K",
    "H(formation,ideal gas)at 25 C": "-2.434000E+05 kJ/kg-mol",
    "G(formation,ideal gas) at 25 C": "2.252000E+04 kJ/kg-mol",
    "Heat of Combustion, Gross form (HCB1)": "6.117050E+06 kJ/kg-mol",
    "Heat of Combustion, Net form (HCB2)": "5.676935E+06 kJ/kg-mol",
    "Van der Waals Volume (VDWV)": NaN,
    "Van der Waals Area (VDWA)": NaN,
    "UNIQUAC Ri Parameter (RI)": NaN,
    "UNIQUAC Qi Parameter (QI)": NaN,
    "Dipole Moment (DM)": NaN,
    "Radius of Gyration (GYRAD)": NaN,
    "Liquid Density (DENL)": "5.613729E-03 g-mol/cm^3",
    "Temperature of DENL (TDENL)": "2.890000E+02 K",
    "Heat of Vaporizaiton (HVAP)": "3.401600E+04 kJ/kg-mol",
    "Temperature of HVAP (THVAP)": "3.997000E+02 K",
    "Surface Tension (SRF)": "2.009000E+01 dyn/cm",
    "Temperature of SRF (TSRF)": "2.982000E+02 K",
    "Dielectric Constant (DIEL)": NaN,
    "Temperature of DIEL (TDIEL)": NaN,
    "Refractive Index (RFI)": "1.401000E+00",
    "Temperature of RFI (TRFI)": "2.981500E+02 K",
    "Lower Flammability Limit(FLL)": NaN,
    "Upper Flammability Limit(FLU)": NaN,
    "Flash Point (Open Cup Method)": NaN,
    "Flash Point (Closed Cup Method)": NaN,
    "Autoignition Temperature (AIGT)": NaN,
    "NFPA Rating (Health)": NaN,
    "NFPA Rating (Fire)": NaN,
    "NFPA Rating (Safety)": NaN,
    "Class": "Paraffinic Hydrocarbons",
    "Subclass": "Branched Alkanes",
    "SMILES": "CCC(C)CC(C)(C)C"
}