{
    "ID": "833",
    "Name": "1-HEXANOL",
    "Synonyms": "N-HEXYL ALCOHOL, AMYLCARBINOL, CAPROYL ALCOHOL",
    "CAS No.": "111-27-3",
    "Formula": "C6H14O",
    "Molecular Wt. (WT)": "1.02176E+02",
    "Normal Boiling Point Temp. (TB)": "4.30700E+02 K",
    "Freezing Point Temp. (TF)": "2.28500E+02 K",
    "Triple Point Temp. (TT)": NaN,
    "Triple Point Press. (PT)": NaN,
    "Critical Temperature. (TC)": "6.10300E+02 K",
    "Critical Pressure (PC)": "3.41700E+03 kPa",
    "Critical Volume (VC)": "3.87000E-01 m^3/kg-mol",
    "Critical Compressibility (ZC)": "2.60601E-01",
    "Accentric Factor (ACCF)": "5.60000E-01",
    "Vapor Pressure": {
        "Equation Name": "KDB Correlation Equation",
        "Equation": "ln(Pvp) = A*ln(T) + B/T + C + D*T^2 where Pvp in kPa, T in K",
        "Coefficient A": "-1.314398E+01",
        "Coefficient B": "-1.087467E+04",
        "Coefficient C": "1.089321E+02",
        "Coefficient D": "3.489983E-06",
        "Coefficient E": NaN,
        "Coefficient F": NaN,
        "Coefficient G": NaN,
        "T range, from": "228.55 K",
        "T range, to": "611.35 K"
    },
    "Heat Capacity (Ideal Gas)": {
        "Equation Name": "Polynomial Equation",
        "Equation": "Cp = A + B*T + C*T^2 + D*T^3 + E*T^4  where Cp in kJ/kg-mol , T in K",
        "Coefficient A": "4.811000E+00",
        "Coefficient B": "5.891000E-01",
        "Coefficient C": "-3.010000E-04",
        "Coefficient D": "5.426E-08",
        "Coefficient E": "0",
        "Coefficient F": NaN,
        "Coefficient G": NaN,
        "T range, from": NaN,
        "T range, to": NaN
    },
    "Heat Capacity (Liquid)": NaN,
    "Viscosity (Gas, Low P)": NaN,
    "Viscosity (Liquid)": {
        "Equation Name": "Andrade Equation",
        "Equation": "ln (VISL) = A + B/ T  where T in K and VISL in cP.",
        "Coefficient A": "-7.651",
        "Coefficient B": "2716",
        "Coefficient C": "0",
        "Coefficient D": "0",
        "Coefficient E": NaN,
        "Coefficient F": NaN,
        "Coefficient G": NaN,
        "T range, from": "293.15 K",
        "T range, to": "333.15 K"
    },
    "Themal Conductivity (Gas, Low P)": NaN,
    "Themal Conductivity (Liquid)": NaN,
    "Surface Tension": NaN,
    "Partial Molar Volume (VOLP)": "1.252300E-01 m^3/kg-mol",
    "Solubility Parameters (SOLP)": "2.167598E+04 (J/cm^3)^0.5",
    "SRK accentric factor (WSRK)": NaN,
    "COSTALD Characteristic Volume (VSTAR)": NaN,
    "Rackett parameter (ZRA)": NaN,
    "Aniline Point (ANP)": NaN,
    "H(formation,ideal gas)at 25 C": "-3.178000E+05 kJ/kg-mol",
    "G(formation,ideal gas) at 25 C": "-1.357000E+05 kJ/kg-mol",
    "Heat of Combustion, Gross form (HCB1)": NaN,
    "Heat of Combustion, Net form (HCB2)": NaN,
    "Van der Waals Volume (VDWV)": NaN,
    "Van der Waals Area (VDWA)": NaN,
    "UNIQUAC Ri Parameter (RI)": "4.803100E+00",
    "UNIQUAC Qi Parameter (QI)": "4.132000E+00",
    "Dipole Moment (DM)": "1.800000E+00 debye",
    "Radius of Gyration (GYRAD)": NaN,
    "Liquid Density (DENL)": "8.015580E-03 g-mol/cm^3",
    "Temperature of DENL (TDENL)": "2.930000E+02 K",
    "Heat of Vaporizaiton (HVAP)": "4.853400E+04 kJ/kg-mol",
    "Temperature of HVAP (THVAP)": "4.303000E+02 K",
    "Surface Tension (SRF)": "2.581000E+01 dyn/cm",
    "Temperature of SRF (TSRF)": "2.982000E+02 K",
    "Dielectric Constant (DIEL)": NaN,
    "Temperature of DIEL (TDIEL)": NaN,
    "Refractive Index (RFI)": NaN,
    "Temperature of RFI (TRFI)": NaN,
    "Lower Flammability Limit(FLL)": "1.200000E+00 % in Air",
    "Upper Flammability Limit(FLU)": "7.700000E+00 % in Air",
    "Flash Point (Open Cup Method)": "3.359278E+02 K",
    "Flash Point (Closed Cup Method)": "3.381500E+02 K",
    "Autoignition Temperature (AIGT)": "5.775945E+02 K",
    "NFPA Rating (Health)": "1",
    "NFPA Rating (Fire)": "2",
    "NFPA Rating (Safety)": NaN,
    "Class": "Alcohols",
    "Subclass": "Aliphatic Alcohols",
    "SMILES": "CCCCCCO"
}