{
    "ID": "838",
    "Name": "1-HEPTANOL",
    "Synonyms": "HEPTYL ALCOHOL, ENANTHIC ALCOHOL, GENTANOL",
    "CAS No.": "111-70-6",
    "Formula": "C7H16O",
    "Molecular Wt. (WT)": "1.16203E+02",
    "Normal Boiling Point Temp. (TB)": "4.49600E+02 K",
    "Freezing Point Temp. (TF)": "2.39000E+02 K",
    "Triple Point Temp. (TT)": NaN,
    "Triple Point Press. (PT)": NaN,
    "Critical Temperature. (TC)": "6.32600E+02 K",
    "Critical Pressure (PC)": "3.05800E+03 kPa",
    "Critical Volume (VC)": "4.35000E-01 m^3/kg-mol",
    "Critical Compressibility (ZC)": "2.52907E-01",
    "Accentric Factor (ACCF)": "5.60000E-01",
    "Vapor Pressure": {
        "Equation Name": "KDB Correlation Equation",
        "Equation": "ln(Pvp) = A*ln(T) + B/T + C + D*T^2 where Pvp in kPa, T in K",
        "Coefficient A": "-2.637008E+01",
        "Coefficient B": "-1.562720E+04",
        "Coefficient C": "1.980813E+02",
        "Coefficient D": "1.176802E-05",
        "Coefficient E": NaN,
        "Coefficient F": NaN,
        "Coefficient G": NaN,
        "T range, from": "239.15 K",
        "T range, to": "631.90 K"
    },
    "Heat Capacity (Ideal Gas)": {
        "Equation Name": "Polynomial Equation",
        "Equation": "Cp = A + B*T + C*T^2 + D*T^3 + E*T^4  where Cp in kJ/kg-mol , T in K",
        "Coefficient A": "4.907000E+01",
        "Coefficient B": "6.778000E-01",
        "Coefficient C": "-3.447000E-04",
        "Coefficient D": "6.046E-08",
        "Coefficient E": "0",
        "Coefficient F": NaN,
        "Coefficient G": NaN,
        "T range, from": NaN,
        "T range, to": NaN
    },
    "Heat Capacity (Liquid)": NaN,
    "Viscosity (Gas, Low P)": NaN,
    "Viscosity (Liquid)": {
        "Equation Name": "Andrade Equation",
        "Equation": "ln (VISL) = A + B/ T  where T in K and VISL in cP.",
        "Coefficient A": "-8.19",
        "Coefficient B": "2964",
        "Coefficient C": "0",
        "Coefficient D": "0",
        "Coefficient E": NaN,
        "Coefficient F": NaN,
        "Coefficient G": NaN,
        "T range, from": "288.15 K",
        "T range, to": "373.15 K"
    },
    "Themal Conductivity (Gas, Low P)": NaN,
    "Themal Conductivity (Liquid)": NaN,
    "Surface Tension": NaN,
    "Partial Molar Volume (VOLP)": NaN,
    "Solubility Parameters (SOLP)": "2.118711E+04 (J/cm^3)^0.5",
    "SRK accentric factor (WSRK)": NaN,
    "COSTALD Characteristic Volume (VSTAR)": NaN,
    "Rackett parameter (ZRA)": NaN,
    "Aniline Point (ANP)": NaN,
    "H(formation,ideal gas)at 25 C": "-3.320000E+05 kJ/kg-mol",
    "G(formation,ideal gas) at 25 C": "-1.210000E+05 kJ/kg-mol",
    "Heat of Combustion, Gross form (HCB1)": NaN,
    "Heat of Combustion, Net form (HCB2)": NaN,
    "Van der Waals Volume (VDWV)": NaN,
    "Van der Waals Area (VDWA)": NaN,
    "UNIQUAC Ri Parameter (RI)": NaN,
    "UNIQUAC Qi Parameter (QI)": NaN,
    "Dipole Moment (DM)": "1.700000E+00 debye",
    "Radius of Gyration (GYRAD)": NaN,
    "Liquid Density (DENL)": "7.073840E-03 g-mol/cm^3",
    "Temperature of DENL (TDENL)": "2.930000E+02 K",
    "Heat of Vaporizaiton (HVAP)": "4.811600E+04 kJ/kg-mol",
    "Temperature of HVAP (THVAP)": "4.491000E+02 K",
    "Surface Tension (SRF)": NaN,
    "Temperature of SRF (TSRF)": NaN,
    "Dielectric Constant (DIEL)": NaN,
    "Temperature of DIEL (TDIEL)": NaN,
    "Refractive Index (RFI)": NaN,
    "Temperature of RFI (TRFI)": NaN,
    "Lower Flammability Limit(FLL)": NaN,
    "Upper Flammability Limit(FLU)": NaN,
    "Flash Point (Open Cup Method)": NaN,
    "Flash Point (Closed Cup Method)": "3.498167E+02 K",
    "Autoignition Temperature (AIGT)": "2.553722E+02 K",
    "NFPA Rating (Health)": NaN,
    "NFPA Rating (Fire)": NaN,
    "NFPA Rating (Safety)": NaN,
    "Class": "Alcohols",
    "Subclass": "Aliphatic Alcohols",
    "SMILES": "CCCCCCCO"
}