{
    "ID": "84",
    "Name": "2,2,5-TRIMETHYLHEXANE",
    "Synonyms": NaN,
    "CAS No.": "3522-94-9",
    "Formula": "C9H20",
    "Molecular Wt. (WT)": "1.28257E+02",
    "Normal Boiling Point Temp. (TB)": "3.97240E+02 K",
    "Freezing Point Temp. (TF)": "1.67390E+02 K",
    "Triple Point Temp. (TT)": NaN,
    "Triple Point Press. (PT)": NaN,
    "Critical Temperature. (TC)": "5.69800E+02 K",
    "Critical Pressure (PC)": "2.33000E+03 kPa",
    "Critical Volume (VC)": "5.19000E-01 m^3/kg-mol",
    "Critical Compressibility (ZC)": "2.55249E-01",
    "Accentric Factor (ACCF)": "3.57000E-01",
    "Vapor Pressure": {
        "Equation Name": "KDB Correlation Equation",
        "Equation": "ln(Pvp) = A*ln(T) + B/T + C + D*T^2 where Pvp in kPa, T in K",
        "Coefficient A": "-9.415044E+00",
        "Coefficient B": "-7.318895E+03",
        "Coefficient C": "7.846476E+01",
        "Coefficient D": "5.736475E-06",
        "Coefficient E": NaN,
        "Coefficient F": NaN,
        "Coefficient G": NaN,
        "T range, from": "167.39 K",
        "T range, to": "568.05 K"
    },
    "Heat Capacity (Ideal Gas)": {
        "Equation Name": "Polynomial Equation",
        "Equation": "Cp = A + B*T + C*T^2 + D*T^3 + E*T^4  where Cp in kJ/kg-mol , T in K",
        "Coefficient A": "-5.411000E+01",
        "Coefficient B": "1.095000E+00",
        "Coefficient C": "-7.746000E-04",
        "Coefficient D": "2.255E-07",
        "Coefficient E": "0",
        "Coefficient F": NaN,
        "Coefficient G": NaN,
        "T range, from": NaN,
        "T range, to": NaN
    },
    "Heat Capacity (Liquid)": NaN,
    "Viscosity (Gas, Low P)": NaN,
    "Viscosity (Liquid)": NaN,
    "Themal Conductivity (Gas, Low P)": NaN,
    "Themal Conductivity (Liquid)": NaN,
    "Surface Tension": NaN,
    "Partial Molar Volume (VOLP)": NaN,
    "Solubility Parameters (SOLP)": "1.437770E+04 (J/cm^3)^0.5",
    "SRK accentric factor (WSRK)": "3.569000E-01",
    "COSTALD Characteristic Volume (VSTAR)": "5.408000E-01 m^3/kg-mol",
    "Rackett parameter (ZRA)": NaN,
    "Aniline Point (ANP)": "3.558500E+02 K",
    "H(formation,ideal gas)at 25 C": "-2.542000E+05 kJ/kg-mol",
    "G(formation,ideal gas) at 25 C": "1.344000E+04 kJ/kg-mol",
    "Heat of Combustion, Gross form (HCB1)": "6.106548E+06 kJ/kg-mol",
    "Heat of Combustion, Net form (HCB2)": "5.666434E+06 kJ/kg-mol",
    "Van der Waals Volume (VDWV)": NaN,
    "Van der Waals Area (VDWA)": NaN,
    "UNIQUAC Ri Parameter (RI)": NaN,
    "UNIQUAC Qi Parameter (QI)": NaN,
    "Dipole Moment (DM)": NaN,
    "Radius of Gyration (GYRAD)": NaN,
    "Liquid Density (DENL)": "5.590338E-03 g-mol/cm^3",
    "Temperature of DENL (TDENL)": "2.890000E+02 K",
    "Heat of Vaporizaiton (HVAP)": "3.376500E+04 kJ/kg-mol",
    "Temperature of HVAP (THVAP)": "3.972000E+02 K",
    "Surface Tension (SRF)": "1.959000E+01 dyn/cm",
    "Temperature of SRF (TSRF)": "2.982000E+02 K",
    "Dielectric Constant (DIEL)": NaN,
    "Temperature of DIEL (TDIEL)": NaN,
    "Refractive Index (RFI)": "1.397280E+00",
    "Temperature of RFI (TRFI)": "2.981500E+02 K",
    "Lower Flammability Limit(FLL)": NaN,
    "Upper Flammability Limit(FLU)": NaN,
    "Flash Point (Open Cup Method)": NaN,
    "Flash Point (Closed Cup Method)": NaN,
    "Autoignition Temperature (AIGT)": NaN,
    "NFPA Rating (Health)": 2.0,
    "NFPA Rating (Fire)": 3.0,
    "NFPA Rating (Safety)": NaN,
    "Class": "Paraffinic Hydrocarbons",
    "Subclass": "Branched Alkanes",
    "SMILES": "CC(C)CCC(C)(C)C"
}