{
    "ID": "841",
    "Name": "1-OCTANOL",
    "Synonyms": "N-OCTYL ALCOHOL, OCTYL ALCOHOL, HEPTYL CARBINOL",
    "CAS No.": "111-87-5",
    "Formula": "C8H18O",
    "Molecular Wt. (WT)": "1.30230E+02",
    "Normal Boiling Point Temp. (TB)": "4.68310E+02 K",
    "Freezing Point Temp. (TF)": "2.57600E+02 K",
    "Triple Point Temp. (TT)": NaN,
    "Triple Point Press. (PT)": NaN,
    "Critical Temperature. (TC)": "6.52500E+02 K",
    "Critical Pressure (PC)": "2.77700E+03 kPa",
    "Critical Volume (VC)": "4.97000E-01 m^3/kg-mol",
    "Critical Compressibility (ZC)": "2.54399E-01",
    "Accentric Factor (ACCF)": "5.87000E-01",
    "Vapor Pressure": {
        "Equation Name": "KDB Correlation Equation",
        "Equation": "ln(Pvp) = A*ln(T) + B/T + C + D*T^2 where Pvp in kPa, T in K",
        "Coefficient A": "-2.732603E+01",
        "Coefficient B": "-1.632739E+04",
        "Coefficient C": "2.048012E+02",
        "Coefficient D": "1.224813E-05",
        "Coefficient E": NaN,
        "Coefficient F": NaN,
        "Coefficient G": NaN,
        "T range, from": "257.65 K",
        "T range, to": "652.50 K"
    },
    "Heat Capacity (Ideal Gas)": {
        "Equation Name": "Polynomial Equation",
        "Equation": "Cp = A + B*T + C*T^2 + D*T^3 + E*T^4  where Cp in kJ/kg-mol , T in K",
        "Coefficient A": "6.171000E+00",
        "Coefficient B": "7.607000E-01",
        "Coefficient C": "-3.797000E-04",
        "Coefficient D": "6.263E-08",
        "Coefficient E": "0",
        "Coefficient F": NaN,
        "Coefficient G": NaN,
        "T range, from": NaN,
        "T range, to": NaN
    },
    "Heat Capacity (Liquid)": NaN,
    "Viscosity (Gas, Low P)": NaN,
    "Viscosity (Liquid)": {
        "Equation Name": "Andrade Equation",
        "Equation": "ln (VISL) = A + B/ T  where T in K and VISL in cP.",
        "Coefficient A": "-8.166",
        "Coefficient B": "3021",
        "Coefficient C": "0",
        "Coefficient D": "0",
        "Coefficient E": NaN,
        "Coefficient F": NaN,
        "Coefficient G": NaN,
        "T range, from": "288.15 K",
        "T range, to": "373.15 K"
    },
    "Themal Conductivity (Gas, Low P)": NaN,
    "Themal Conductivity (Liquid)": NaN,
    "Surface Tension": NaN,
    "Partial Molar Volume (VOLP)": "1.584200E-01 m^3/kg-mol",
    "Solubility Parameters (SOLP)": "2.097029E+04 (J/cm^3)^0.5",
    "SRK accentric factor (WSRK)": NaN,
    "COSTALD Characteristic Volume (VSTAR)": NaN,
    "Rackett parameter (ZRA)": NaN,
    "Aniline Point (ANP)": NaN,
    "H(formation,ideal gas)at 25 C": "-3.601000E+05 kJ/kg-mol",
    "G(formation,ideal gas) at 25 C": "-1.202000E+05 kJ/kg-mol",
    "Heat of Combustion, Gross form (HCB1)": NaN,
    "Heat of Combustion, Net form (HCB2)": NaN,
    "Van der Waals Volume (VDWV)": NaN,
    "Van der Waals Area (VDWA)": NaN,
    "UNIQUAC Ri Parameter (RI)": "6.151900E+00",
    "UNIQUAC Qi Parameter (QI)": "5.212000E+00",
    "Dipole Moment (DM)": "2.000000E+00 debye",
    "Radius of Gyration (GYRAD)": NaN,
    "Liquid Density (DENL)": "6.342644E-03 g-mol/cm^3",
    "Temperature of DENL (TDENL)": "2.930000E+02 K",
    "Heat of Vaporizaiton (HVAP)": "5.062600E+04 kJ/kg-mol",
    "Temperature of HVAP (THVAP)": "4.683000E+02 K",
    "Surface Tension (SRF)": "2.750000E+01 dyn/cm",
    "Temperature of SRF (TSRF)": "2.932000E+02 K",
    "Dielectric Constant (DIEL)": NaN,
    "Temperature of DIEL (TDIEL)": NaN,
    "Refractive Index (RFI)": NaN,
    "Temperature of RFI (TRFI)": NaN,
    "Lower Flammability Limit(FLL)": NaN,
    "Upper Flammability Limit(FLU)": NaN,
    "Flash Point (Open Cup Method)": NaN,
    "Flash Point (Closed Cup Method)": NaN,
    "Autoignition Temperature (AIGT)": NaN,
    "NFPA Rating (Health)": 1.0,
    "NFPA Rating (Fire)": 2.0,
    "NFPA Rating (Safety)": NaN,
    "Class": "Alcohols",
    "Subclass": "Aliphatic Alcohols",
    "SMILES": "CCCCCCCCO"
}