{
    "ID": "842",
    "Name": "2-OCTANOL",
    "Synonyms": "SEC-CAPRYLIC ALCOHOL, CAPRYL ALCOHOL, HEXYLMETHYLCARBINOL",
    "CAS No.": "123-96-6",
    "Formula": "C8H18O",
    "Molecular Wt. (WT)": "1.30230E+02",
    "Normal Boiling Point Temp. (TB)": "4.53030E+02 K",
    "Freezing Point Temp. (TF)": "2.41000E+02 K",
    "Triple Point Temp. (TT)": NaN,
    "Triple Point Press. (PT)": NaN,
    "Critical Temperature. (TC)": "6.29600E+02 K",
    "Critical Pressure (PC)": "2.90000E+03 kPa",
    "Critical Volume (VC)": "5.19000E-01 m^3/kg-mol",
    "Critical Compressibility (ZC)": "2.87517E-01",
    "Accentric Factor (ACCF)": NaN,
    "Vapor Pressure": {
        "Equation Name": "KDB Correlation Equation",
        "Equation": "ln(Pvp) = A*ln(T) + B/T + C + D*T^2 where Pvp in kPa, T in K",
        "Coefficient A": "-2.704138E+01",
        "Coefficient B": "-1.565873E+04",
        "Coefficient C": "2.020892E+02",
        "Coefficient D": "1.218016E-05",
        "Coefficient E": NaN,
        "Coefficient F": NaN,
        "Coefficient G": NaN,
        "T range, from": "241.55 K",
        "T range, to": "637.15 K"
    },
    "Heat Capacity (Ideal Gas)": {
        "Equation Name": "Polynomial Equation",
        "Equation": "Cp = A + B*T + C*T^2 + D*T^3 + E*T^4  where Cp in kJ/kg-mol , T in K",
        "Coefficient A": "2.588000E+01",
        "Coefficient B": "7.641000E-01",
        "Coefficient C": "-4.224000E-04",
        "Coefficient D": "9.064E-08",
        "Coefficient E": "0",
        "Coefficient F": NaN,
        "Coefficient G": NaN,
        "T range, from": NaN,
        "T range, to": NaN
    },
    "Heat Capacity (Liquid)": NaN,
    "Viscosity (Gas, Low P)": NaN,
    "Viscosity (Liquid)": NaN,
    "Themal Conductivity (Gas, Low P)": NaN,
    "Themal Conductivity (Liquid)": NaN,
    "Surface Tension": NaN,
    "Partial Molar Volume (VOLP)": "1.585100E-01 m^3/kg-mol",
    "Solubility Parameters (SOLP)": "1.724751E+04 (J/cm^3)^0.5",
    "SRK accentric factor (WSRK)": NaN,
    "COSTALD Characteristic Volume (VSTAR)": NaN,
    "Rackett parameter (ZRA)": NaN,
    "Aniline Point (ANP)": NaN,
    "H(formation,ideal gas)at 25 C": NaN,
    "G(formation,ideal gas) at 25 C": NaN,
    "Heat of Combustion, Gross form (HCB1)": NaN,
    "Heat of Combustion, Net form (HCB2)": NaN,
    "Van der Waals Volume (VDWV)": NaN,
    "Van der Waals Area (VDWA)": NaN,
    "UNIQUAC Ri Parameter (RI)": "6.151100E+00",
    "UNIQUAC Qi Parameter (QI)": "5.208000E+00",
    "Dipole Moment (DM)": "1.600000E+00 debye",
    "Radius of Gyration (GYRAD)": NaN,
    "Liquid Density (DENL)": "6.304250E-03 g-mol/cm^3",
    "Temperature of DENL (TDENL)": "2.930000E+02 K",
    "Heat of Vaporizaiton (HVAP)": NaN,
    "Temperature of HVAP (THVAP)": NaN,
    "Surface Tension (SRF)": NaN,
    "Temperature of SRF (TSRF)": NaN,
    "Dielectric Constant (DIEL)": NaN,
    "Temperature of DIEL (TDIEL)": NaN,
    "Refractive Index (RFI)": NaN,
    "Temperature of RFI (TRFI)": NaN,
    "Lower Flammability Limit(FLL)": NaN,
    "Upper Flammability Limit(FLU)": NaN,
    "Flash Point (Open Cup Method)": NaN,
    "Flash Point (Closed Cup Method)": NaN,
    "Autoignition Temperature (AIGT)": NaN,
    "NFPA Rating (Health)": 1.0,
    "NFPA Rating (Fire)": 2.0,
    "NFPA Rating (Safety)": NaN,
    "Class": "Alcohols",
    "Subclass": "Aliphatic Alcohols",
    "SMILES": "CCCCCCC(C)O"
}