{
    "ID": "846",
    "Name": "1-NONANOL",
    "Synonyms": "N-NONYL ALCOHOL, OCTYLCARBINOL, PELARGONIC ALCOHOL",
    "CAS No.": "143-08-8",
    "Formula": "C9H20O",
    "Molecular Wt. (WT)": "1.44256E+02",
    "Normal Boiling Point Temp. (TB)": "4.86520E+02 K",
    "Freezing Point Temp. (TF)": "2.68000E+02 K",
    "Triple Point Temp. (TT)": NaN,
    "Triple Point Press. (PT)": NaN,
    "Critical Temperature. (TC)": "6.70700E+02 K",
    "Critical Pressure (PC)": "2.52800E+03 kPa",
    "Critical Volume (VC)": "5.72000E-01 m^3/kg-mol",
    "Critical Compressibility (ZC)": "2.59303E-01",
    "Accentric Factor (ACCF)": NaN,
    "Vapor Pressure": {
        "Equation Name": "KDB Correlation Equation",
        "Equation": "ln(Pvp) = A*ln(T) + B/T + C + D*T^2 where Pvp in kPa, T in K",
        "Coefficient A": "-3.411204E+01",
        "Coefficient B": "-1.904547E+04",
        "Coefficient C": "2.510003E+02",
        "Coefficient D": "1.615833E-05",
        "Coefficient E": NaN,
        "Coefficient F": NaN,
        "Coefficient G": NaN,
        "T range, from": "268.15 K",
        "T range, to": "673.00 K"
    },
    "Heat Capacity (Ideal Gas)": {
        "Equation Name": "Polynomial Equation",
        "Equation": "Cp = A + B*T + C*T^2 + D*T^3 + E*T^4  where Cp in kJ/kg-mol , T in K",
        "Coefficient A": "1.280000E+00",
        "Coefficient B": "8.817000E-01",
        "Coefficient C": "-4.791000E-04",
        "Coefficient D": "9.801E-08",
        "Coefficient E": "0",
        "Coefficient F": NaN,
        "Coefficient G": NaN,
        "T range, from": NaN,
        "T range, to": NaN
    },
    "Heat Capacity (Liquid)": NaN,
    "Viscosity (Gas, Low P)": NaN,
    "Viscosity (Liquid)": NaN,
    "Themal Conductivity (Gas, Low P)": NaN,
    "Themal Conductivity (Liquid)": NaN,
    "Surface Tension": NaN,
    "Partial Molar Volume (VOLP)": "1.743700E-01 m^3/kg-mol",
    "Solubility Parameters (SOLP)": "2.070438E+04 (J/cm^3)^0.5",
    "SRK accentric factor (WSRK)": NaN,
    "COSTALD Characteristic Volume (VSTAR)": NaN,
    "Rackett parameter (ZRA)": NaN,
    "Aniline Point (ANP)": NaN,
    "H(formation,ideal gas)at 25 C": "-3.872000E+05 kJ/kg-mol",
    "G(formation,ideal gas) at 25 C": "-1.183000E+05 kJ/kg-mol",
    "Heat of Combustion, Gross form (HCB1)": NaN,
    "Heat of Combustion, Net form (HCB2)": NaN,
    "Van der Waals Volume (VDWV)": NaN,
    "Van der Waals Area (VDWA)": NaN,
    "UNIQUAC Ri Parameter (RI)": "6.826300E+00",
    "UNIQUAC Qi Parameter (QI)": "5.752000E+00",
    "Dipole Moment (DM)": "1.700000E+00 debye",
    "Radius of Gyration (GYRAD)": NaN,
    "Liquid Density (DENL)": "5.739780E-03 g-mol/cm^3",
    "Temperature of DENL (TDENL)": "2.930000E+02 K",
    "Heat of Vaporizaiton (HVAP)": "5.439200E+04 kJ/kg-mol",
    "Temperature of HVAP (THVAP)": "4.866000E+02 K",
    "Surface Tension (SRF)": "2.827000E+01 dyn/cm",
    "Temperature of SRF (TSRF)": "2.932000E+02 K",
    "Dielectric Constant (DIEL)": NaN,
    "Temperature of DIEL (TDIEL)": NaN,
    "Refractive Index (RFI)": NaN,
    "Temperature of RFI (TRFI)": NaN,
    "Lower Flammability Limit(FLL)": "8.000000E-01 % in Air",
    "Upper Flammability Limit(FLU)": "6.100000E+00 % in Air",
    "Flash Point (Open Cup Method)": "3.470389E+02 K",
    "Flash Point (Closed Cup Method)": "3.720389E+02 K",
    "Autoignition Temperature (AIGT)": NaN,
    "NFPA Rating (Health)": "1",
    "NFPA Rating (Fire)": "2",
    "NFPA Rating (Safety)": NaN,
    "Class": "Alcohols",
    "Subclass": "Aliphatic Alcohols",
    "SMILES": "CCCCCCCCCO"
}