{
    "ID": "849",
    "Name": "1-DECANOL",
    "Synonyms": "N-DECYL ALCOHOL, CAPRIC ALCOHOL, NONYLCARBINOL",
    "CAS No.": "112-30-1",
    "Formula": "C10H22O",
    "Molecular Wt. (WT)": "1.58283E+02",
    "Normal Boiling Point Temp. (TB)": "5.04200E+02 K",
    "Freezing Point Temp. (TF)": "2.80000E+02 K",
    "Triple Point Temp. (TT)": NaN,
    "Triple Point Press. (PT)": NaN,
    "Critical Temperature. (TC)": "6.87300E+02 K",
    "Critical Pressure (PC)": "2.31500E+03 kPa",
    "Critical Volume (VC)": "6.49000E-01 m^3/kg-mol",
    "Critical Compressibility (ZC)": "2.62913E-01",
    "Accentric Factor (ACCF)": NaN,
    "Vapor Pressure": {
        "Equation Name": "KDB Correlation Equation",
        "Equation": "ln(Pvp) = A*ln(T) + B/T + C + D*T^2 where Pvp in kPa, T in K",
        "Coefficient A": "-3.164740E+01",
        "Coefficient B": "-1.881483E+04",
        "Coefficient C": "2.354190E+02",
        "Coefficient D": "1.367407E-05",
        "Coefficient E": NaN,
        "Coefficient F": NaN,
        "Coefficient G": NaN,
        "T range, from": "280.05 K",
        "T range, to": "690.00 K"
    },
    "Heat Capacity (Ideal Gas)": {
        "Equation Name": "Polynomial Equation",
        "Equation": "Cp = A + B*T + C*T^2 + D*T^3 + E*T^4  where Cp in kJ/kg-mol , T in K",
        "Coefficient A": "1.457000E+01",
        "Coefficient B": "8.946999E-01",
        "Coefficient C": "-3.921000E-04",
        "Coefficient D": "3.451E-08",
        "Coefficient E": "0",
        "Coefficient F": NaN,
        "Coefficient G": NaN,
        "T range, from": NaN,
        "T range, to": NaN
    },
    "Heat Capacity (Liquid)": NaN,
    "Viscosity (Gas, Low P)": NaN,
    "Viscosity (Liquid)": NaN,
    "Themal Conductivity (Gas, Low P)": NaN,
    "Themal Conductivity (Liquid)": NaN,
    "Surface Tension": NaN,
    "Partial Molar Volume (VOLP)": "1.907800E-01 m^3/kg-mol",
    "Solubility Parameters (SOLP)": "2.049983E+04 (J/cm^3)^0.5",
    "SRK accentric factor (WSRK)": NaN,
    "COSTALD Characteristic Volume (VSTAR)": NaN,
    "Rackett parameter (ZRA)": NaN,
    "Aniline Point (ANP)": NaN,
    "H(formation,ideal gas)at 25 C": "-4.019000E+05 kJ/kg-mol",
    "G(formation,ideal gas) at 25 C": "-1.043000E+05 kJ/kg-mol",
    "Heat of Combustion, Gross form (HCB1)": NaN,
    "Heat of Combustion, Net form (HCB2)": NaN,
    "Van der Waals Volume (VDWV)": NaN,
    "Van der Waals Area (VDWA)": NaN,
    "UNIQUAC Ri Parameter (RI)": "7.500700E+00",
    "UNIQUAC Qi Parameter (QI)": "6.292000E+00",
    "Dipole Moment (DM)": "1.800000E+00 debye",
    "Radius of Gyration (GYRAD)": NaN,
    "Liquid Density (DENL)": "5.243765E-03 g-mol/cm^3",
    "Temperature of DENL (TDENL)": "2.930000E+02 K",
    "Heat of Vaporizaiton (HVAP)": "5.020800E+04 kJ/kg-mol",
    "Temperature of HVAP (THVAP)": "5.041000E+02 K",
    "Surface Tension (SRF)": "2.888000E+01 dyn/cm",
    "Temperature of SRF (TSRF)": "2.932000E+02 K",
    "Dielectric Constant (DIEL)": NaN,
    "Temperature of DIEL (TDIEL)": NaN,
    "Refractive Index (RFI)": NaN,
    "Temperature of RFI (TRFI)": NaN,
    "Lower Flammability Limit(FLL)": NaN,
    "Upper Flammability Limit(FLU)": NaN,
    "Flash Point (Open Cup Method)": NaN,
    "Flash Point (Closed Cup Method)": "3.553723E+02 K",
    "Autoignition Temperature (AIGT)": NaN,
    "NFPA Rating (Health)": NaN,
    "NFPA Rating (Fire)": "2",
    "NFPA Rating (Safety)": NaN,
    "Class": "Alcohols",
    "Subclass": "Aliphatic Alcohols",
    "SMILES": "CCCCCCCCCCO"
}