{
    "ID": "852",
    "Name": "1-DODECANOL",
    "Synonyms": "N-DODECYL ALCOHOL, LAURIC ALCOHOL, DUODECYL ALCOHOL",
    "CAS No.": "112-53-8",
    "Formula": "C12H26O",
    "Molecular Wt. (WT)": "1.86337E+02",
    "Normal Boiling Point Temp. (TB)": "5.32000E+02 K",
    "Freezing Point Temp. (TF)": "2.97000E+02 K",
    "Triple Point Temp. (TT)": NaN,
    "Triple Point Press. (PT)": NaN,
    "Critical Temperature. (TC)": "7.19400E+02 K",
    "Critical Pressure (PC)": "1.99400E+03 kPa",
    "Critical Volume (VC)": "7.18000E-01 m^3/kg-mol",
    "Critical Compressibility (ZC)": "2.39355E-01",
    "Accentric Factor (ACCF)": NaN,
    "Vapor Pressure": {
        "Equation Name": "KDB Correlation Equation",
        "Equation": "ln(Pvp) = A*ln(T) + B/T + C + D*T^2 where Pvp in kPa, T in K",
        "Coefficient A": "-3.863085E+01",
        "Coefficient B": "-2.240287E+04",
        "Coefficient C": "2.847040E+02",
        "Coefficient D": "1.565156E-05",
        "Coefficient E": NaN,
        "Coefficient F": NaN,
        "Coefficient G": NaN,
        "T range, from": "296.95 K",
        "T range, to": "721.00 K"
    },
    "Heat Capacity (Ideal Gas)": {
        "Equation Name": "Polynomial Equation",
        "Equation": "Cp = A + B*T + C*T^2 + D*T^3 + E*T^4  where Cp in kJ/kg-mol , T in K",
        "Coefficient A": "9.224000E+00",
        "Coefficient B": "1.103000E+00",
        "Coefficient C": "-5.338000E-04",
        "Coefficient D": "7.779E-08",
        "Coefficient E": "0",
        "Coefficient F": NaN,
        "Coefficient G": NaN,
        "T range, from": NaN,
        "T range, to": NaN
    },
    "Heat Capacity (Liquid)": NaN,
    "Viscosity (Gas, Low P)": NaN,
    "Viscosity (Liquid)": NaN,
    "Themal Conductivity (Gas, Low P)": NaN,
    "Themal Conductivity (Liquid)": NaN,
    "Surface Tension": NaN,
    "Partial Molar Volume (VOLP)": "2.242400E-01 m^3/kg-mol",
    "Solubility Parameters (SOLP)": "1.711251E+04 (J/cm^3)^0.5",
    "SRK accentric factor (WSRK)": NaN,
    "COSTALD Characteristic Volume (VSTAR)": NaN,
    "Rackett parameter (ZRA)": NaN,
    "Aniline Point (ANP)": NaN,
    "H(formation,ideal gas)at 25 C": "-4.431000E+05 kJ/kg-mol",
    "G(formation,ideal gas) at 25 C": "-8.713000E+04 kJ/kg-mol",
    "Heat of Combustion, Gross form (HCB1)": NaN,
    "Heat of Combustion, Net form (HCB2)": NaN,
    "Van der Waals Volume (VDWV)": NaN,
    "Van der Waals Area (VDWA)": NaN,
    "UNIQUAC Ri Parameter (RI)": "8.849500E+00",
    "UNIQUAC Qi Parameter (QI)": "7.372000E+00",
    "Dipole Moment (DM)": "1.600000E+00 debye",
    "Radius of Gyration (GYRAD)": NaN,
    "Liquid Density (DENL)": "4.481133E-03 g-mol/cm^3",
    "Temperature of DENL (TDENL)": "2.930000E+02 K",
    "Heat of Vaporizaiton (HVAP)": "6.770100E+04 kJ/kg-mol",
    "Temperature of HVAP (THVAP)": "5.331000E+02 K",
    "Surface Tension (SRF)": NaN,
    "Temperature of SRF (TSRF)": NaN,
    "Dielectric Constant (DIEL)": NaN,
    "Temperature of DIEL (TDIEL)": NaN,
    "Refractive Index (RFI)": NaN,
    "Temperature of RFI (TRFI)": NaN,
    "Lower Flammability Limit(FLL)": NaN,
    "Upper Flammability Limit(FLU)": NaN,
    "Flash Point (Open Cup Method)": NaN,
    "Flash Point (Closed Cup Method)": NaN,
    "Autoignition Temperature (AIGT)": NaN,
    "NFPA Rating (Health)": NaN,
    "NFPA Rating (Fire)": 1.0,
    "NFPA Rating (Safety)": NaN,
    "Class": "Alcohols",
    "Subclass": "Aliphatic Alcohols",
    "SMILES": "CCCCCCCCCCCCO"
}