{
    "ID": "861",
    "Name": "PHENOL",
    "Synonyms": "CARBOLIC ACID, HYDROXYBENZENE, IZAL",
    "CAS No.": "108-95-2",
    "Formula": "C6H6O",
    "Molecular Wt. (WT)": "9.41128E+01",
    "Normal Boiling Point Temp. (TB)": "4.55020E+02 K",
    "Freezing Point Temp. (TF)": "3.14000E+02 K",
    "Triple Point Temp. (TT)": NaN,
    "Triple Point Press. (PT)": NaN,
    "Critical Temperature. (TC)": "6.94200E+02 K",
    "Critical Pressure (PC)": "6.13000E+03 kPa",
    "Critical Volume (VC)": "2.29000E-01 m^3/kg-mol",
    "Critical Compressibility (ZC)": "2.43206E-01",
    "Accentric Factor (ACCF)": "4.38000E-01",
    "Vapor Pressure": {
        "Equation Name": "KDB Correlation Equation",
        "Equation": "ln(Pvp) = A*ln(T) + B/T + C + D*T^2 where Pvp in kPa, T in K",
        "Coefficient A": "-1.104001E+01",
        "Coefficient B": "-1.000305E+04",
        "Coefficient C": "9.327452E+01",
        "Coefficient D": "4.319948E-06",
        "Coefficient E": NaN,
        "Coefficient F": NaN,
        "Coefficient G": NaN,
        "T range, from": "314.06 K",
        "T range, to": "694.25 K"
    },
    "Heat Capacity (Ideal Gas)": {
        "Equation Name": "Polynomial Equation",
        "Equation": "Cp = A + B*T + C*T^2 + D*T^3 + E*T^4  where Cp in kJ/kg-mol , T in K",
        "Coefficient A": "-2.771813E+01",
        "Coefficient B": "5.544873E-01",
        "Coefficient C": "-4.150992E-04",
        "Coefficient D": "1.276672E-07",
        "Coefficient E": "-6.852853E-12",
        "Coefficient F": NaN,
        "Coefficient G": NaN,
        "T range, from": NaN,
        "T range, to": NaN
    },
    "Heat Capacity (Liquid)": {
        "Equation Name": "Polynomial Equation",
        "Equation": "Cp = A + B*T + C*T^2 + D*T^3  where T in K and Cp in kJ/kg-mol.K",
        "Coefficient A": "-271.5424",
        "Coefficient B": "3.235985",
        "Coefficient C": "-7.253206E-03",
        "Coefficient D": "5.697822E-06",
        "Coefficient E": NaN,
        "Coefficient F": NaN,
        "Coefficient G": NaN,
        "T range, from": "313.9 K",
        "T range, to": "673.15 K"
    },
    "Viscosity (Gas, Low P)": {
        "Equation Name": "Polynomial Equation",
        "Equation": "VISG = A + B*T + C*T^2 where T in K and VISG in cP",
        "Coefficient A": "-.001641",
        "Coefficient B": ".000032",
        "Coefficient C": "0",
        "Coefficient D": "0",
        "Coefficient E": NaN,
        "Coefficient F": NaN,
        "Coefficient G": NaN,
        "T range, from": "273.15 K",
        "T range, to": "1273.15 K"
    },
    "Viscosity (Liquid)": {
        "Equation Name": "Quasipolynomial Equation",
        "Equation": "ln (VISL) = A + B/T + C*T + D*T^2  where T in K and VISL in cP.",
        "Coefficient A": "-18.51",
        "Coefficient B": "4350",
        "Coefficient C": ".02429",
        "Coefficient D": "-1.547E-05",
        "Coefficient E": NaN,
        "Coefficient F": NaN,
        "Coefficient G": NaN,
        "T range, from": "314.15 K",
        "T range, to": "693.15 K"
    },
    "Themal Conductivity (Gas, Low P)": {
        "Equation Name": "Polynomial Equation",
        "Equation": "THG = A + B*T + C*T^2 + D*T^3  where T in K and THG in W/m.K",
        "Coefficient A": "-.01335",
        "Coefficient B": ".0000639",
        "Coefficient C": "7.286E-08",
        "Coefficient D": "-1.843E-11",
        "Coefficient E": NaN,
        "Coefficient F": NaN,
        "Coefficient G": NaN,
        "T range, from": "273 K",
        "T range, to": "1270 K"
    },
    "Themal Conductivity (Liquid)": NaN,
    "Surface Tension": NaN,
    "Partial Molar Volume (VOLP)": "8.314000E-02 m^3/kg-mol",
    "Solubility Parameters (SOLP)": "2.687355E+04 (J/cm^3)^0.5",
    "SRK accentric factor (WSRK)": "4.297000E-01",
    "COSTALD Characteristic Volume (VSTAR)": "2.809000E-01 m^3/kg-mol",
    "Rackett parameter (ZRA)": "2.780000E-01",
    "Aniline Point (ANP)": NaN,
    "H(formation,ideal gas)at 25 C": "-9.642000E+04 kJ/kg-mol",
    "G(formation,ideal gas) at 25 C": "-3.290000E+04 kJ/kg-mol",
    "Heat of Combustion, Gross form (HCB1)": NaN,
    "Heat of Combustion, Net form (HCB2)": NaN,
    "Van der Waals Volume (VDWV)": NaN,
    "Van der Waals Area (VDWA)": NaN,
    "UNIQUAC Ri Parameter (RI)": "3.551700E+00",
    "UNIQUAC Qi Parameter (QI)": "2.680000E+00",
    "Dipole Moment (DM)": "1.600000E+00 debye",
    "Radius of Gyration (GYRAD)": "3.550000E+00",
    "Liquid Density (DENL)": "1.125245E-02 g-mol/cm^3",
    "Temperature of DENL (TDENL)": "3.130000E+02 K",
    "Heat of Vaporizaiton (HVAP)": "4.560600E+04 kJ/kg-mol",
    "Temperature of HVAP (THVAP)": "4.549000E+02 K",
    "Surface Tension (SRF)": "3.286000E+01 dyn/cm",
    "Temperature of SRF (TSRF)": "3.732000E+02 K",
    "Dielectric Constant (DIEL)": NaN,
    "Temperature of DIEL (TDIEL)": NaN,
    "Refractive Index (RFI)": NaN,
    "Temperature of RFI (TRFI)": NaN,
    "Lower Flammability Limit(FLL)": "1.700000E+00 % in Air",
    "Upper Flammability Limit(FLU)": "8.600000E+00 % in Air",
    "Flash Point (Open Cup Method)": "3.525945E+02 K",
    "Flash Point (Closed Cup Method)": "3.581500E+02 K",
    "Autoignition Temperature (AIGT)": "9.881500E+02 K",
    "NFPA Rating (Health)": "3",
    "NFPA Rating (Fire)": "2",
    "NFPA Rating (Safety)": NaN,
    "Class": "Alcohols",
    "Subclass": "Aromatic Alcohols",
    "SMILES": "C1=CC=C(C=C1)O"
}