{
    "ID": "869",
    "Name": "P-CRESOL",
    "Synonyms": "P-CRESYLIC ACID, 4-METHYLPHENOL, P-HYDROXYTOLUENE",
    "CAS No.": "106-44-5",
    "Formula": "C7H8O",
    "Molecular Wt. (WT)": "1.08140E+02",
    "Normal Boiling Point Temp. (TB)": "4.75130E+02 K",
    "Freezing Point Temp. (TF)": "3.08900E+02 K",
    "Triple Point Temp. (TT)": NaN,
    "Triple Point Press. (PT)": NaN,
    "Critical Temperature. (TC)": "7.04600E+02 K",
    "Critical Pressure (PC)": "5.15000E+03 kPa",
    "Critical Volume (VC)": "2.77000E-01 m^3/kg-mol",
    "Critical Compressibility (ZC)": "2.43505E-01",
    "Accentric Factor (ACCF)": "5.05000E-01",
    "Vapor Pressure": {
        "Equation Name": "KDB Correlation Equation",
        "Equation": "ln(Pvp) = A*ln(T) + B/T + C + D*T^2 where Pvp in kPa, T in K",
        "Coefficient A": "-2.337760E+01",
        "Coefficient B": "-1.464795E+04",
        "Coefficient C": "1.769627E+02",
        "Coefficient D": "1.140845E-05",
        "Coefficient E": NaN,
        "Coefficient F": NaN,
        "Coefficient G": NaN,
        "T range, from": "307.93 K",
        "T range, to": "704.65 K"
    },
    "Heat Capacity (Ideal Gas)": {
        "Equation Name": "Polynomial Equation",
        "Equation": "Cp = A + B*T + C*T^2 + D*T^3 + E*T^4  where Cp in kJ/kg-mol , T in K",
        "Coefficient A": "-4.063000E+01",
        "Coefficient B": "7.055000E-01",
        "Coefficient C": "-5.757000E-04",
        "Coefficient D": "1.967E-07",
        "Coefficient E": "0",
        "Coefficient F": NaN,
        "Coefficient G": NaN,
        "T range, from": NaN,
        "T range, to": NaN
    },
    "Heat Capacity (Liquid)": NaN,
    "Viscosity (Gas, Low P)": NaN,
    "Viscosity (Liquid)": NaN,
    "Themal Conductivity (Gas, Low P)": NaN,
    "Themal Conductivity (Liquid)": NaN,
    "Surface Tension": NaN,
    "Partial Molar Volume (VOLP)": NaN,
    "Solubility Parameters (SOLP)": "2.340032E+04 (J/cm^3)^0.5",
    "SRK accentric factor (WSRK)": NaN,
    "COSTALD Characteristic Volume (VSTAR)": NaN,
    "Rackett parameter (ZRA)": NaN,
    "Aniline Point (ANP)": NaN,
    "H(formation,ideal gas)at 25 C": "-1.255000E+05 kJ/kg-mol",
    "G(formation,ideal gas) at 25 C": "-3.090000E+04 kJ/kg-mol",
    "Heat of Combustion, Gross form (HCB1)": NaN,
    "Heat of Combustion, Net form (HCB2)": NaN,
    "Van der Waals Volume (VDWV)": NaN,
    "Van der Waals Area (VDWA)": NaN,
    "UNIQUAC Ri Parameter (RI)": NaN,
    "UNIQUAC Qi Parameter (QI)": NaN,
    "Dipole Moment (DM)": "1.600000E+00 debye",
    "Radius of Gyration (GYRAD)": NaN,
    "Liquid Density (DENL)": "9.423005E-03 g-mol/cm^3",
    "Temperature of DENL (TDENL)": "3.130000E+02 K",
    "Heat of Vaporizaiton (HVAP)": "4.744700E+04 kJ/kg-mol",
    "Temperature of HVAP (THVAP)": "4.750000E+02 K",
    "Surface Tension (SRF)": "3.488000E+01 dyn/cm",
    "Temperature of SRF (TSRF)": "3.132000E+02 K",
    "Dielectric Constant (DIEL)": NaN,
    "Temperature of DIEL (TDIEL)": NaN,
    "Refractive Index (RFI)": NaN,
    "Temperature of RFI (TRFI)": NaN,
    "Lower Flammability Limit(FLL)": NaN,
    "Upper Flammability Limit(FLU)": NaN,
    "Flash Point (Open Cup Method)": NaN,
    "Flash Point (Closed Cup Method)": NaN,
    "Autoignition Temperature (AIGT)": NaN,
    "NFPA Rating (Health)": 2.0,
    "NFPA Rating (Fire)": 1.0,
    "NFPA Rating (Safety)": NaN,
    "Class": "Alcohols",
    "Subclass": "Aromatic Alcohols",
    "SMILES": "CC1=CC=C(C=C1)O"
}