{
    "ID": "870",
    "Name": "BENZYL ALCOHOL",
    "Synonyms": "BENZENEMETHANOL, BENZAL ALCOHOL, PHENYLMETHANOL",
    "CAS No.": "100-51-6",
    "Formula": "C7H8O",
    "Molecular Wt. (WT)": "1.08140E+02",
    "Normal Boiling Point Temp. (TB)": "4.78460E+02 K",
    "Freezing Point Temp. (TF)": "2.57900E+02 K",
    "Triple Point Temp. (TT)": NaN,
    "Triple Point Press. (PT)": NaN,
    "Critical Temperature. (TC)": "7.15000E+02 K",
    "Critical Pressure (PC)": "4.30000E+03 kPa",
    "Critical Volume (VC)": NaN,
    "Critical Compressibility (ZC)": NaN,
    "Accentric Factor (ACCF)": NaN,
    "Vapor Pressure": {
        "Equation Name": "KDB Correlation Equation",
        "Equation": "ln(Pvp) = A*ln(T) + B/T + C + D*T^2 where Pvp in kPa, T in K",
        "Coefficient A": "-9.932469E+00",
        "Coefficient B": "-1.072720E+04",
        "Coefficient C": "8.819416E+01",
        "Coefficient D": "8.079896E-07",
        "Coefficient E": NaN,
        "Coefficient F": NaN,
        "Coefficient G": NaN,
        "T range, from": "303.00 K",
        "T range, to": "711.66 K"
    },
    "Heat Capacity (Ideal Gas)": {
        "Equation Name": "Polynomial Equation",
        "Equation": "Cp = A + B*T + C*T^2 + D*T^3 + E*T^4  where Cp in kJ/kg-mol , T in K",
        "Coefficient A": "-7.398000E+00",
        "Coefficient B": "5.481000E-01",
        "Coefficient C": "-3.357000E-04",
        "Coefficient D": "7.771E-08",
        "Coefficient E": "0",
        "Coefficient F": NaN,
        "Coefficient G": NaN,
        "T range, from": NaN,
        "T range, to": NaN
    },
    "Heat Capacity (Liquid)": NaN,
    "Viscosity (Gas, Low P)": NaN,
    "Viscosity (Liquid)": {
        "Equation Name": "Andrade Equation",
        "Equation": "ln (VISL) = A + B/ T  where T in K and VISL in cP.",
        "Coefficient A": "-6.822",
        "Coefficient B": "2505",
        "Coefficient C": "0",
        "Coefficient D": "0",
        "Coefficient E": NaN,
        "Coefficient F": NaN,
        "Coefficient G": NaN,
        "T range, from": "293.15 K",
        "T range, to": "333.15 K"
    },
    "Themal Conductivity (Gas, Low P)": NaN,
    "Themal Conductivity (Liquid)": NaN,
    "Surface Tension": NaN,
    "Partial Molar Volume (VOLP)": "1.038500E-01 m^3/kg-mol",
    "Solubility Parameters (SOLP)": "2.221394E+04 (J/cm^3)^0.5",
    "SRK accentric factor (WSRK)": "7.231000E-01",
    "COSTALD Characteristic Volume (VSTAR)": "3.591000E-01 m^3/kg-mol",
    "Rackett parameter (ZRA)": NaN,
    "Aniline Point (ANP)": NaN,
    "H(formation,ideal gas)at 25 C": "-9.408000E+04 kJ/kg-mol",
    "G(formation,ideal gas) at 25 C": NaN,
    "Heat of Combustion, Gross form (HCB1)": NaN,
    "Heat of Combustion, Net form (HCB2)": NaN,
    "Van der Waals Volume (VDWV)": NaN,
    "Van der Waals Area (VDWA)": NaN,
    "UNIQUAC Ri Parameter (RI)": "4.226000E+00",
    "UNIQUAC Qi Parameter (QI)": "3.256000E+00",
    "Dipole Moment (DM)": "1.700000E+00 debye",
    "Radius of Gyration (GYRAD)": NaN,
    "Liquid Density (DENL)": "9.626445E-03 g-mol/cm^3",
    "Temperature of DENL (TDENL)": "2.980000E+02 K",
    "Heat of Vaporizaiton (HVAP)": NaN,
    "Temperature of HVAP (THVAP)": NaN,
    "Surface Tension (SRF)": NaN,
    "Temperature of SRF (TSRF)": NaN,
    "Dielectric Constant (DIEL)": NaN,
    "Temperature of DIEL (TDIEL)": NaN,
    "Refractive Index (RFI)": NaN,
    "Temperature of RFI (TRFI)": NaN,
    "Lower Flammability Limit(FLL)": NaN,
    "Upper Flammability Limit(FLU)": NaN,
    "Flash Point (Open Cup Method)": "3.737056E+02 K",
    "Flash Point (Closed Cup Method)": "3.775945E+02 K",
    "Autoignition Temperature (AIGT)": "7.092611E+02 K",
    "NFPA Rating (Health)": "2",
    "NFPA Rating (Fire)": "1",
    "NFPA Rating (Safety)": NaN,
    "Class": "Alcohols",
    "Subclass": "Aromatic Alcohols",
    "SMILES": "C1=CC=C(C=C1)CO"
}