{
    "ID": "895",
    "Name": "ALLYL ALCOHOL",
    "Synonyms": "PROPENYLALCOHOL, VINYLCARBINOL, 3-HYDROXYPROPENE",
    "CAS No.": "107-18-6",
    "Formula": "C3H6O",
    "Molecular Wt. (WT)": "5.80798E+01",
    "Normal Boiling Point Temp. (TB)": "3.70230E+02 K",
    "Freezing Point Temp. (TF)": "1.44000E+02 K",
    "Triple Point Temp. (TT)": NaN,
    "Triple Point Press. (PT)": NaN,
    "Critical Temperature. (TC)": "5.45000E+02 K",
    "Critical Pressure (PC)": "5.31000E+03 kPa",
    "Critical Volume (VC)": "2.03500E-01 m^3/kg-mol",
    "Critical Compressibility (ZC)": "2.38466E-01",
    "Accentric Factor (ACCF)": "5.54000E-01",
    "Vapor Pressure": {
        "Equation Name": "KDB Correlation Equation",
        "Equation": "ln(Pvp) = A*ln(T) + B/T + C + D*T^2 where Pvp in kPa, T in K",
        "Coefficient A": "-5.240792E+00",
        "Coefficient B": "-6.877546E+03",
        "Coefficient C": "5.409432E+01",
        "Coefficient D": "6.033814E-07",
        "Coefficient E": NaN,
        "Coefficient F": NaN,
        "Coefficient G": NaN,
        "T range, from": "144.15 K",
        "T range, to": "545.05 K"
    },
    "Heat Capacity (Ideal Gas)": {
        "Equation Name": "Polynomial Equation",
        "Equation": "Cp = A + B*T + C*T^2 + D*T^3 + E*T^4  where Cp in kJ/kg-mol , T in K",
        "Coefficient A": "-1.105000E+00",
        "Coefficient B": "3.146000E-01",
        "Coefficient C": "-2.032000E-04",
        "Coefficient D": "5.321E-08",
        "Coefficient E": "0",
        "Coefficient F": NaN,
        "Coefficient G": NaN,
        "T range, from": NaN,
        "T range, to": NaN
    },
    "Heat Capacity (Liquid)": NaN,
    "Viscosity (Gas, Low P)": NaN,
    "Viscosity (Liquid)": {
        "Equation Name": "Power Law",
        "Equation": "VISL = A *T^B where T in K and VISL in cP.",
        "Coefficient A": "3.529E+13",
        "Coefficient B": "-5.445",
        "Coefficient C": "0",
        "Coefficient D": "0",
        "Coefficient E": NaN,
        "Coefficient F": NaN,
        "Coefficient G": NaN,
        "T range, from": "273.15 K",
        "T range, to": "343.15 K"
    },
    "Themal Conductivity (Gas, Low P)": NaN,
    "Themal Conductivity (Liquid)": NaN,
    "Surface Tension": NaN,
    "Partial Molar Volume (VOLP)": "6.862000E-02 m^3/kg-mol",
    "Solubility Parameters (SOLP)": "2.486489E+04 (J/cm^3)^0.5",
    "SRK accentric factor (WSRK)": "6.663000E-01",
    "COSTALD Characteristic Volume (VSTAR)": "2.273000E-01 m^3/kg-mol",
    "Rackett parameter (ZRA)": NaN,
    "Aniline Point (ANP)": NaN,
    "H(formation,ideal gas)at 25 C": "-1.321000E+05 kJ/kg-mol",
    "G(formation,ideal gas) at 25 C": "-7.130000E+04 kJ/kg-mol",
    "Heat of Combustion, Gross form (HCB1)": NaN,
    "Heat of Combustion, Net form (HCB2)": NaN,
    "Van der Waals Volume (VDWV)": NaN,
    "Van der Waals Area (VDWA)": NaN,
    "UNIQUAC Ri Parameter (RI)": 2.5498,
    "UNIQUAC Qi Parameter (QI)": 2.3,
    "Dipole Moment (DM)": NaN,
    "Radius of Gyration (GYRAD)": NaN,
    "Liquid Density (DENL)": "1.472113E-02 g-mol/cm^3",
    "Temperature of DENL (TDENL)": "2.880000E+02 K",
    "Heat of Vaporizaiton (HVAP)": "3.995700E+04 kJ/kg-mol",
    "Temperature of HVAP (THVAP)": "3.697000E+02 K",
    "Surface Tension (SRF)": "2.573000E+01 dyn/cm",
    "Temperature of SRF (TSRF)": "2.932000E+02 K",
    "Dielectric Constant (DIEL)": NaN,
    "Temperature of DIEL (TDIEL)": NaN,
    "Refractive Index (RFI)": NaN,
    "Temperature of RFI (TRFI)": NaN,
    "Lower Flammability Limit(FLL)": "2.500000E+00 % in Air",
    "Upper Flammability Limit(FLU)": "1.800000E+01 % in Air",
    "Flash Point (Open Cup Method)": "2.953722E+02 K",
    "Flash Point (Closed Cup Method)": "3.053722E+02 K",
    "Autoignition Temperature (AIGT)": "7.159278E+02 K",
    "NFPA Rating (Health)": "3",
    "NFPA Rating (Fire)": "3",
    "NFPA Rating (Safety)": "1",
    "Class": "Alcohols",
    "Subclass": "Unsaturated or Cyclic Alcohols",
    "SMILES": "C=CCO"
}