{
    "ID": "899",
    "Name": "CYCLOHEXANOL",
    "Synonyms": "ADRONAL, ANOL, CYCLOHEXYL ALCOHOL",
    "CAS No.": "108-93-0",
    "Formula": "C6H12O",
    "Molecular Wt. (WT)": "1.00160E+02",
    "Normal Boiling Point Temp. (TB)": "4.33990E+02 K",
    "Freezing Point Temp. (TF)": "2.98610E+02 K",
    "Triple Point Temp. (TT)": NaN,
    "Triple Point Press. (PT)": NaN,
    "Critical Temperature. (TC)": "6.50100E+02 K",
    "Critical Pressure (PC)": "4.26000E+03 kPa",
    "Critical Volume (VC)": NaN,
    "Critical Compressibility (ZC)": NaN,
    "Accentric Factor (ACCF)": "5.28000E-01",
    "Vapor Pressure": {
        "Equation Name": "KDB Correlation Equation",
        "Equation": "ln(Pvp) = A*ln(T) + B/T + C + D*T^2 where Pvp in kPa, T in K",
        "Coefficient A": "-1.615977E+01",
        "Coefficient B": "-1.187803E+04",
        "Coefficient C": "1.291036E+02",
        "Coefficient D": "5.553658E-06",
        "Coefficient E": NaN,
        "Coefficient F": NaN,
        "Coefficient G": NaN,
        "T range, from": "296.60 K",
        "T range, to": "625.15 K"
    },
    "Heat Capacity (Ideal Gas)": {
        "Equation Name": "Polynomial Equation",
        "Equation": "Cp = A + B*T + C*T^2 + D*T^3 + E*T^4  where Cp in kJ/kg-mol , T in K",
        "Coefficient A": "-5.553000E+01",
        "Coefficient B": "7.214000E-01",
        "Coefficient C": "-4.086000E-04",
        "Coefficient D": "8.235E-08",
        "Coefficient E": "0",
        "Coefficient F": NaN,
        "Coefficient G": NaN,
        "T range, from": NaN,
        "T range, to": NaN
    },
    "Heat Capacity (Liquid)": NaN,
    "Viscosity (Gas, Low P)": NaN,
    "Viscosity (Liquid)": NaN,
    "Themal Conductivity (Gas, Low P)": NaN,
    "Themal Conductivity (Liquid)": NaN,
    "Surface Tension": NaN,
    "Partial Molar Volume (VOLP)": "1.034300E-01 m^3/kg-mol",
    "Solubility Parameters (SOLP)": "2.236122E+04 (J/cm^3)^0.5",
    "SRK accentric factor (WSRK)": "5.296000E-01",
    "COSTALD Characteristic Volume (VSTAR)": "3.377000E-01 m^3/kg-mol",
    "Rackett parameter (ZRA)": "2.450000E-01",
    "Aniline Point (ANP)": NaN,
    "H(formation,ideal gas)at 25 C": "-2.948000E+05 kJ/kg-mol",
    "G(formation,ideal gas) at 25 C": "-1.180000E+05 kJ/kg-mol",
    "Heat of Combustion, Gross form (HCB1)": NaN,
    "Heat of Combustion, Net form (HCB2)": NaN,
    "Van der Waals Volume (VDWV)": NaN,
    "Van der Waals Area (VDWA)": NaN,
    "UNIQUAC Ri Parameter (RI)": "4.348900E+00",
    "UNIQUAC Qi Parameter (QI)": "3.512000E+00",
    "Dipole Moment (DM)": "1.700000E+00 debye",
    "Radius of Gyration (GYRAD)": "3.434000E+00",
    "Liquid Density (DENL)": "9.404933E-03 g-mol/cm^3",
    "Temperature of DENL (TDENL)": "3.030000E+02 K",
    "Heat of Vaporizaiton (HVAP)": "4.548000E+04 kJ/kg-mol",
    "Temperature of HVAP (THVAP)": "4.337000E+02 K",
    "Surface Tension (SRF)": "3.147000E+01 dyn/cm",
    "Temperature of SRF (TSRF)": "3.132000E+02 K",
    "Dielectric Constant (DIEL)": NaN,
    "Temperature of DIEL (TDIEL)": NaN,
    "Refractive Index (RFI)": NaN,
    "Temperature of RFI (TRFI)": NaN,
    "Lower Flammability Limit(FLL)": NaN,
    "Upper Flammability Limit(FLU)": NaN,
    "Flash Point (Open Cup Method)": "3.409278E+02 K",
    "Flash Point (Closed Cup Method)": "3.442611E+02 K",
    "Autoignition Temperature (AIGT)": "5.731500E+02 K",
    "NFPA Rating (Health)": "1",
    "NFPA Rating (Fire)": "2",
    "NFPA Rating (Safety)": NaN,
    "Class": "Alcohols",
    "Subclass": "Unsaturated or Cyclic Alcohols",
    "SMILES": "C1CCC(CC1)O"
}