{
    "ID": "9",
    "Name": "N-NONANE",
    "Synonyms": "NONANE",
    "CAS No.": "111-84-2",
    "Formula": "C9H20",
    "Molecular Wt. (WT)": "1.28257E+02",
    "Normal Boiling Point Temp. (TB)": "4.23970E+02 K",
    "Freezing Point Temp. (TF)": "2.19600E+02 K",
    "Triple Point Temp. (TT)": "2.19650E+02 K",
    "Triple Point Press. (PT)": NaN,
    "Critical Temperature. (TC)": "5.94600E+02 K",
    "Critical Pressure (PC)": "2.29000E+03 kPa",
    "Critical Volume (VC)": "5.55000E-01 m^3/kg-mol",
    "Critical Compressibility (ZC)": "2.57079E-01",
    "Accentric Factor (ACCF)": "4.45000E-01",
    "Vapor Pressure": {
        "Equation Name": "KDB Correlation Equation",
        "Equation": "ln(Pvp) = A*ln(T) + B/T + C + D*T^2 where Pvp in kPa, T in K",
        "Coefficient A": "-8.327399E+00",
        "Coefficient B": "-7.739415E+03",
        "Coefficient C": "7.254661E+01",
        "Coefficient D": "3.894831E-06",
        "Coefficient E": NaN,
        "Coefficient F": NaN,
        "Coefficient G": NaN,
        "T range, from": "219.63 K",
        "T range, to": "595.65 K"
    },
    "Heat Capacity (Ideal Gas)": {
        "Equation Name": "Polynomial Equation",
        "Equation": "Cp = A + B*T + C*T^2 + D*T^3 + E*T^4  where Cp in kJ/kg-mol , T in K",
        "Coefficient A": "3.300592E+01",
        "Coefficient B": "5.716978E-01",
        "Coefficient C": "2.650426E-04",
        "Coefficient D": "-6.309716E-07",
        "Coefficient E": "2.391857E-10",
        "Coefficient F": NaN,
        "Coefficient G": NaN,
        "T range, from": NaN,
        "T range, to": NaN
    },
    "Heat Capacity (Liquid)": NaN,
    "Viscosity (Gas, Low P)": NaN,
    "Viscosity (Liquid)": {
        "Equation Name": "Andrade Equation",
        "Equation": "ln (VISL) = A + B/ T  where T in K and VISL in cP.",
        "Coefficient A": "-4.447",
        "Coefficient B": "1210",
        "Coefficient C": "0",
        "Coefficient D": "0",
        "Coefficient E": NaN,
        "Coefficient F": NaN,
        "Coefficient G": NaN,
        "T range, from": "223.15 K",
        "T range, to": "423.15 K"
    },
    "Themal Conductivity (Gas, Low P)": NaN,
    "Themal Conductivity (Liquid)": NaN,
    "Surface Tension": NaN,
    "Partial Molar Volume (VOLP)": "1.786300E-01 m^3/kg-mol",
    "Solubility Parameters (SOLP)": "1.564590E+04 (J/cm^3)^0.5",
    "SRK accentric factor (WSRK)": "4.478000E-01",
    "COSTALD Characteristic Volume (VSTAR)": "5.529000E-01 m^3/kg-mol",
    "Rackett parameter (ZRA)": "2.543000E-01",
    "Aniline Point (ANP)": "3.468500E+02 K",
    "H(formation,ideal gas)at 25 C": "-2.292000E+05 kJ/kg-mol",
    "G(formation,ideal gas) at 25 C": "2.483000E+04 kJ/kg-mol",
    "Heat of Combustion, Gross form (HCB1)": "6.125167E+06 kJ/kg-mol",
    "Heat of Combustion, Net form (HCB2)": "5.685052E+06 kJ/kg-mol",
    "Van der Waals Volume (VDWV)": NaN,
    "Van der Waals Area (VDWA)": NaN,
    "UNIQUAC Ri Parameter (RI)": 6.523,
    "UNIQUAC Qi Parameter (QI)": 5.476,
    "Dipole Moment (DM)": NaN,
    "Radius of Gyration (GYRAD)": NaN,
    "Liquid Density (DENL)": "5.598135E-03 g-mol/cm^3",
    "Temperature of DENL (TDENL)": "2.930000E+02 K",
    "Heat of Vaporizaiton (HVAP)": "3.691500E+04 kJ/kg-mol",
    "Temperature of HVAP (THVAP)": "4.238000E+02 K",
    "Surface Tension (SRF)": "2.285000E+01 dyn/cm",
    "Temperature of SRF (TSRF)": "2.932000E+02 K",
    "Dielectric Constant (DIEL)": NaN,
    "Temperature of DIEL (TDIEL)": NaN,
    "Refractive Index (RFI)": "1.403110E+00",
    "Temperature of RFI (TRFI)": "2.981500E+02 K",
    "Lower Flammability Limit(FLL)": "8.700000E-01 % in Air",
    "Upper Flammability Limit(FLU)": "2.900000E+00 % in Air",
    "Flash Point (Open Cup Method)": "3.042611E+02 K",
    "Flash Point (Closed Cup Method)": NaN,
    "Autoignition Temperature (AIGT)": "4.781500E+02 K",
    "NFPA Rating (Health)": NaN,
    "NFPA Rating (Fire)": "3",
    "NFPA Rating (Safety)": NaN,
    "Class": "Paraffinic Hydrocarbons",
    "Subclass": "n-Alkanes",
    "SMILES": "CCCCCCCCC"
}