{
    "ID": "909",
    "Name": "ETHYLENE GLYCOL",
    "Synonyms": "1,2-ETHANEDIOL, GLYCOL ALCOHOL, ETHTLENE DIHYDRATE",
    "CAS No.": "107-21-1",
    "Formula": "C2H6O2",
    "Molecular Wt. (WT)": "6.20682E+01",
    "Normal Boiling Point Temp. (TB)": "4.70490E+02 K",
    "Freezing Point Temp. (TF)": "2.60000E+02 K",
    "Triple Point Temp. (TT)": NaN,
    "Triple Point Press. (PT)": NaN,
    "Critical Temperature. (TC)": "7.18000E+02 K",
    "Critical Pressure (PC)": "7.70000E+03 kPa",
    "Critical Volume (VC)": NaN,
    "Critical Compressibility (ZC)": NaN,
    "Accentric Factor (ACCF)": NaN,
    "Vapor Pressure": {
        "Equation Name": "KDB Correlation Equation",
        "Equation": "ln(Pvp) = A*ln(T) + B/T + C + D*T^2 where Pvp in kPa, T in K",
        "Coefficient A": "-2.599771E+01",
        "Coefficient B": "-1.476857E+04",
        "Coefficient C": "1.914250E+02",
        "Coefficient D": "2.062331E-05",
        "Coefficient E": NaN,
        "Coefficient F": NaN,
        "Coefficient G": NaN,
        "T range, from": "260.15 K",
        "T range, to": "645.00 K"
    },
    "Heat Capacity (Ideal Gas)": {
        "Equation Name": "Polynomial Equation",
        "Equation": "Cp = A + B*T + C*T^2 + D*T^3 + E*T^4  where Cp in kJ/kg-mol , T in K",
        "Coefficient A": "3.570000E+01",
        "Coefficient B": "2.483000E-01",
        "Coefficient C": "-1.497000E-04",
        "Coefficient D": "3.01E-08",
        "Coefficient E": "0",
        "Coefficient F": NaN,
        "Coefficient G": NaN,
        "T range, from": NaN,
        "T range, to": NaN
    },
    "Heat Capacity (Liquid)": NaN,
    "Viscosity (Gas, Low P)": NaN,
    "Viscosity (Liquid)": {
        "Equation Name": "Andrade Equation",
        "Equation": "ln (VISL) = A + B/ T  where T in K and VISL in cP.",
        "Coefficient A": "-7.811",
        "Coefficient B": "3143",
        "Coefficient C": "0",
        "Coefficient D": "0",
        "Coefficient E": NaN,
        "Coefficient F": NaN,
        "Coefficient G": NaN,
        "T range, from": "293.15 K",
        "T range, to": "383.15 K"
    },
    "Themal Conductivity (Gas, Low P)": NaN,
    "Themal Conductivity (Liquid)": NaN,
    "Surface Tension": NaN,
    "Partial Molar Volume (VOLP)": "5.592000E-02 m^3/kg-mol",
    "Solubility Parameters (SOLP)": "3.409206E+04 (J/cm^3)^0.5",
    "SRK accentric factor (WSRK)": "1.228000E+00",
    "COSTALD Characteristic Volume (VSTAR)": "2.120000E-01 m^3/kg-mol",
    "Rackett parameter (ZRA)": "2.488000E-01",
    "Aniline Point (ANP)": NaN,
    "H(formation,ideal gas)at 25 C": "-3.896000E+05 kJ/kg-mol",
    "G(formation,ideal gas) at 25 C": "-3.047000E+05 kJ/kg-mol",
    "Heat of Combustion, Gross form (HCB1)": NaN,
    "Heat of Combustion, Net form (HCB2)": NaN,
    "Van der Waals Volume (VDWV)": NaN,
    "Van der Waals Area (VDWA)": NaN,
    "UNIQUAC Ri Parameter (RI)": "2.408800E+00",
    "UNIQUAC Qi Parameter (QI)": "2.248000E+00",
    "Dipole Moment (DM)": "2.200000E+00 debye",
    "Radius of Gyration (GYRAD)": "2.470000E+00",
    "Liquid Density (DENL)": "1.794800E-02 g-mol/cm^3",
    "Temperature of DENL (TDENL)": "2.930000E+02 K",
    "Heat of Vaporizaiton (HVAP)": "5.250900E+04 kJ/kg-mol",
    "Temperature of HVAP (THVAP)": "4.705000E+02 K",
    "Surface Tension (SRF)": "4.843000E+01 dyn/cm",
    "Temperature of SRF (TSRF)": "2.932000E+02 K",
    "Dielectric Constant (DIEL)": NaN,
    "Temperature of DIEL (TDIEL)": NaN,
    "Refractive Index (RFI)": NaN,
    "Temperature of RFI (TRFI)": NaN,
    "Lower Flammability Limit(FLL)": "3.200000E+00 % in Air",
    "Upper Flammability Limit(FLU)": NaN,
    "Flash Point (Open Cup Method)": "3.842611E+02 K",
    "Flash Point (Closed Cup Method)": "3.887056E+02 K",
    "Autoignition Temperature (AIGT)": "6.859278E+02 K",
    "NFPA Rating (Health)": "1",
    "NFPA Rating (Fire)": "1",
    "NFPA Rating (Safety)": NaN,
    "Class": "Alcohols",
    "Subclass": "Polyols",
    "SMILES": "C(CO)O"
}