{
    "ID": "919",
    "Name": "DIETHYLENE GLYCOL",
    "Synonyms": "BETA,BETA'-DIHYDROXYDIETHYL ETHER, ETHYLENE DIGLYCOL, 2,2'-OXYBIS ETHANOL",
    "CAS No.": "111-46-6",
    "Formula": "C4H10O3",
    "Molecular Wt. (WT)": "1.06121E+02",
    "Normal Boiling Point Temp. (TB)": "5.19000E+02 K",
    "Freezing Point Temp. (TF)": "2.65000E+02 K",
    "Triple Point Temp. (TT)": NaN,
    "Triple Point Press. (PT)": NaN,
    "Critical Temperature. (TC)": "6.81000E+02 K",
    "Critical Pressure (PC)": "4.70000E+03 kPa",
    "Critical Volume (VC)": NaN,
    "Critical Compressibility (ZC)": NaN,
    "Accentric Factor (ACCF)": NaN,
    "Vapor Pressure": {
        "Equation Name": "KDB Correlation Equation",
        "Equation": "ln(Pvp) = A*ln(T) + B/T + C + D*T^2 where Pvp in kPa, T in K",
        "Coefficient A": "-1.283727E+01",
        "Coefficient B": "-1.285564E+04",
        "Coefficient C": "1.087915E+02",
        "Coefficient D": "3.169949E-06",
        "Coefficient E": NaN,
        "Coefficient F": NaN,
        "Coefficient G": NaN,
        "T range, from": "262.70 K",
        "T range, to": "744.60 K"
    },
    "Heat Capacity (Ideal Gas)": {
        "Equation Name": "Polynomial Equation",
        "Equation": "Cp = A + B*T + C*T^2 + D*T^3 + E*T^4  where Cp in kJ/kg-mol , T in K",
        "Coefficient A": "7.306001E+01",
        "Coefficient B": "3.461000E-01",
        "Coefficient C": "-1.468000E-04",
        "Coefficient D": "1.846E-08",
        "Coefficient E": "0",
        "Coefficient F": NaN,
        "Coefficient G": NaN,
        "T range, from": NaN,
        "T range, to": NaN
    },
    "Heat Capacity (Liquid)": NaN,
    "Viscosity (Gas, Low P)": NaN,
    "Viscosity (Liquid)": NaN,
    "Themal Conductivity (Gas, Low P)": NaN,
    "Themal Conductivity (Liquid)": NaN,
    "Surface Tension": NaN,
    "Partial Molar Volume (VOLP)": "9.478000E-02 m^3/kg-mol",
    "Solubility Parameters (SOLP)": "2.708833E+04 (J/cm^3)^0.5",
    "SRK accentric factor (WSRK)": "1.071300E+00",
    "COSTALD Characteristic Volume (VSTAR)": "3.522000E-01 m^3/kg-mol",
    "Rackett parameter (ZRA)": "2.489000E-01",
    "Aniline Point (ANP)": NaN,
    "H(formation,ideal gas)at 25 C": "-5.715000E+05 kJ/kg-mol",
    "G(formation,ideal gas) at 25 C": NaN,
    "Heat of Combustion, Gross form (HCB1)": NaN,
    "Heat of Combustion, Net form (HCB2)": NaN,
    "Van der Waals Volume (VDWV)": NaN,
    "Van der Waals Area (VDWA)": NaN,
    "UNIQUAC Ri Parameter (RI)": 4.0013,
    "UNIQUAC Qi Parameter (QI)": 3.568,
    "Dipole Moment (DM)": NaN,
    "Radius of Gyration (GYRAD)": NaN,
    "Liquid Density (DENL)": "1.051628E-02 g-mol/cm^3",
    "Temperature of DENL (TDENL)": "2.930000E+02 K",
    "Heat of Vaporizaiton (HVAP)": NaN,
    "Temperature of HVAP (THVAP)": NaN,
    "Surface Tension (SRF)": NaN,
    "Temperature of SRF (TSRF)": NaN,
    "Dielectric Constant (DIEL)": NaN,
    "Temperature of DIEL (TDIEL)": NaN,
    "Refractive Index (RFI)": NaN,
    "Temperature of RFI (TRFI)": NaN,
    "Lower Flammability Limit(FLL)": NaN,
    "Upper Flammability Limit(FLU)": NaN,
    "Flash Point (Open Cup Method)": NaN,
    "Flash Point (Closed Cup Method)": NaN,
    "Autoignition Temperature (AIGT)": NaN,
    "NFPA Rating (Health)": NaN,
    "NFPA Rating (Fire)": NaN,
    "NFPA Rating (Safety)": NaN,
    "Class": "Alcohols",
    "Subclass": "Polyols",
    "SMILES": "C(COCCO)O"
}