{
    "ID": "929",
    "Name": "FORMIC ACID",
    "Synonyms": "AMINIC ACID, BILORIN, FORMYLIC ACID",
    "CAS No.": "64-18-6",
    "Formula": "CH2O2",
    "Molecular Wt. (WT)": "4.60256E+01",
    "Normal Boiling Point Temp. (TB)": "3.74000E+02 K",
    "Freezing Point Temp. (TF)": "2.81400E+02 K",
    "Triple Point Temp. (TT)": NaN,
    "Triple Point Press. (PT)": NaN,
    "Critical Temperature. (TC)": "5.88000E+02 K",
    "Critical Pressure (PC)": "7.39000E+03 kPa",
    "Critical Volume (VC)": "1.24988E-01 m^3/kg-mol",
    "Critical Compressibility (ZC)": "1.88929E-01",
    "Accentric Factor (ACCF)": "4.73000E-01",
    "Vapor Pressure": {
        "Equation Name": "KDB Correlation Equation",
        "Equation": "ln(Pvp) = A*ln(T) + B/T + C + D*T^2 where Pvp in kPa, T in K",
        "Coefficient A": "-9.793940E+00",
        "Coefficient B": "-6.677451E+03",
        "Coefficient C": "7.890439E+01",
        "Coefficient D": "1.143164E-05",
        "Coefficient E": NaN,
        "Coefficient F": NaN,
        "Coefficient G": NaN,
        "T range, from": "271.00 K",
        "T range, to": "580.00 K"
    },
    "Heat Capacity (Ideal Gas)": {
        "Equation Name": "Polynomial Equation",
        "Equation": "Cp = A + B*T + C*T^2 + D*T^3 + E*T^4  where Cp in kJ/kg-mol , T in K",
        "Coefficient A": "1.171000E+01",
        "Coefficient B": "1.358000E-01",
        "Coefficient C": "-8.411000E-05",
        "Coefficient D": "2.017E-08",
        "Coefficient E": "0",
        "Coefficient F": NaN,
        "Coefficient G": NaN,
        "T range, from": NaN,
        "T range, to": NaN
    },
    "Heat Capacity (Liquid)": NaN,
    "Viscosity (Gas, Low P)": NaN,
    "Viscosity (Liquid)": {
        "Equation Name": "Andrade Equation",
        "Equation": "ln (VISL) = A + B/ T  where T in K and VISL in cP.",
        "Coefficient A": "-5.156",
        "Coefficient B": "1679",
        "Coefficient C": "0",
        "Coefficient D": "0",
        "Coefficient E": NaN,
        "Coefficient F": NaN,
        "Coefficient G": NaN,
        "T range, from": "281.15 K",
        "T range, to": "383.15 K"
    },
    "Themal Conductivity (Gas, Low P)": NaN,
    "Themal Conductivity (Liquid)": NaN,
    "Surface Tension": NaN,
    "Partial Molar Volume (VOLP)": "3.791000E-02 m^3/kg-mol",
    "Solubility Parameters (SOLP)": "2.137325E+04 (J/cm^3)^0.5",
    "SRK accentric factor (WSRK)": "4.700000E-01",
    "COSTALD Characteristic Volume (VSTAR)": "1.170000E-01 m^3/kg-mol",
    "Rackett parameter (ZRA)": "1.820000E-01",
    "Aniline Point (ANP)": NaN,
    "H(formation,ideal gas)at 25 C": "-3.789000E+05 kJ/kg-mol",
    "G(formation,ideal gas) at 25 C": "-3.512000E+05 kJ/kg-mol",
    "Heat of Combustion, Gross form (HCB1)": NaN,
    "Heat of Combustion, Net form (HCB2)": NaN,
    "Van der Waals Volume (VDWV)": NaN,
    "Van der Waals Area (VDWA)": NaN,
    "UNIQUAC Ri Parameter (RI)": "1.528000E+00",
    "UNIQUAC Qi Parameter (QI)": "1.532000E+00",
    "Dipole Moment (DM)": "1.500000E+00 debye",
    "Radius of Gyration (GYRAD)": "1.880000E-01",
    "Liquid Density (DENL)": "2.663735E-02 g-mol/cm^3",
    "Temperature of DENL (TDENL)": "2.880000E+02 K",
    "Heat of Vaporizaiton (HVAP)": "2.192400E+04 kJ/kg-mol",
    "Temperature of HVAP (THVAP)": "3.739000E+02 K",
    "Surface Tension (SRF)": "3.767000E+01 dyn/cm",
    "Temperature of SRF (TSRF)": "2.932000E+02 K",
    "Dielectric Constant (DIEL)": NaN,
    "Temperature of DIEL (TDIEL)": NaN,
    "Refractive Index (RFI)": NaN,
    "Temperature of RFI (TRFI)": NaN,
    "Lower Flammability Limit(FLL)": "1.800000E+01 % in Air",
    "Upper Flammability Limit(FLU)": "5.700000E+01 % in Air",
    "Flash Point (Open Cup Method)": NaN,
    "Flash Point (Closed Cup Method)": "3.320389E+02 K",
    "Autoignition Temperature (AIGT)": "8.742612E+02 K",
    "NFPA Rating (Health)": "3",
    "NFPA Rating (Fire)": "2",
    "NFPA Rating (Safety)": NaN,
    "Class": "Acids",
    "Subclass": "Aliphatic Acids",
    "SMILES": "C(=O)O"
}