{
    "ID": "930",
    "Name": "ACETIC ACID",
    "Synonyms": "ETHANOIC ACID, GLACIAL ACETIC ACID, METHANECARBOXYLIC ACID",
    "CAS No.": "64-19-7",
    "Formula": "C2H4O2",
    "Molecular Wt. (WT)": "6.00524E+01",
    "Normal Boiling Point Temp. (TB)": "3.91000E+02 K",
    "Freezing Point Temp. (TF)": "2.89700E+02 K",
    "Triple Point Temp. (TT)": "2.89690E+02 K",
    "Triple Point Press. (PT)": "1.27700E+00 kPa",
    "Critical Temperature. (TC)": "5.92710E+02 K",
    "Critical Pressure (PC)": "5.78600E+03 kPa",
    "Critical Volume (VC)": "1.71000E-01 m^3/kg-mol",
    "Critical Compressibility (ZC)": "2.00769E-01",
    "Accentric Factor (ACCF)": "4.47000E-01",
    "Vapor Pressure": {
        "Equation Name": "KDB Correlation Equation",
        "Equation": "ln(Pvp) = A*ln(T) + B/T + C + D*T^2 where Pvp in kPa, T in K",
        "Coefficient A": "-7.798528E+00",
        "Coefficient B": "-7.029721E+03",
        "Coefficient C": "6.822937E+01",
        "Coefficient D": "5.930999E-06",
        "Coefficient E": NaN,
        "Coefficient F": NaN,
        "Coefficient G": NaN,
        "T range, from": "289.81 K",
        "T range, to": "592.71 K"
    },
    "Heat Capacity (Ideal Gas)": {
        "Equation Name": "Polynomial Equation",
        "Equation": "Cp = A + B*T + C*T^2 + D*T^3 + E*T^4  where Cp in kJ/kg-mol , T in K",
        "Coefficient A": "4.840000E+00",
        "Coefficient B": "2.549000E-01",
        "Coefficient C": "-1.753000E-04",
        "Coefficient D": "4.949E-08",
        "Coefficient E": "0",
        "Coefficient F": NaN,
        "Coefficient G": NaN,
        "T range, from": NaN,
        "T range, to": NaN
    },
    "Heat Capacity (Liquid)": NaN,
    "Viscosity (Gas, Low P)": NaN,
    "Viscosity (Liquid)": {
        "Equation Name": "Andrade Equation",
        "Equation": "ln (VISL) = A + B/ T  where T in K and VISL in cP.",
        "Coefficient A": "-4.519",
        "Coefficient B": "1384",
        "Coefficient C": "0",
        "Coefficient D": "0",
        "Coefficient E": NaN,
        "Coefficient F": NaN,
        "Coefficient G": NaN,
        "T range, from": "288.15 K",
        "T range, to": "393.15 K"
    },
    "Themal Conductivity (Gas, Low P)": NaN,
    "Themal Conductivity (Liquid)": NaN,
    "Surface Tension": NaN,
    "Partial Molar Volume (VOLP)": "5.754000E-02 m^3/kg-mol",
    "Solubility Parameters (SOLP)": "1.816184E+04 (J/cm^3)^0.5",
    "SRK accentric factor (WSRK)": "4.310000E-01",
    "COSTALD Characteristic Volume (VSTAR)": "1.741000E-01 m^3/kg-mol",
    "Rackett parameter (ZRA)": "2.225000E-01",
    "Aniline Point (ANP)": NaN,
    "H(formation,ideal gas)at 25 C": "-4.351000E+05 kJ/kg-mol",
    "G(formation,ideal gas) at 25 C": "-3.769000E+05 kJ/kg-mol",
    "Heat of Combustion, Gross form (HCB1)": NaN,
    "Heat of Combustion, Net form (HCB2)": NaN,
    "Van der Waals Volume (VDWV)": NaN,
    "Van der Waals Area (VDWA)": NaN,
    "UNIQUAC Ri Parameter (RI)": "2.202400E+00",
    "UNIQUAC Qi Parameter (QI)": "2.072000E+00",
    "Dipole Moment (DM)": "1.300000E+00 debye",
    "Radius of Gyration (GYRAD)": "2.595000E+00",
    "Liquid Density (DENL)": "1.746808E-02 g-mol/cm^3",
    "Temperature of DENL (TDENL)": "2.930000E+02 K",
    "Heat of Vaporizaiton (HVAP)": "2.368100E+04 kJ/kg-mol",
    "Temperature of HVAP (THVAP)": "3.913000E+02 K",
    "Surface Tension (SRF)": "2.660000E+01 dyn/cm",
    "Temperature of SRF (TSRF)": "3.032000E+02 K",
    "Dielectric Constant (DIEL)": NaN,
    "Temperature of DIEL (TDIEL)": NaN,
    "Refractive Index (RFI)": NaN,
    "Temperature of RFI (TRFI)": NaN,
    "Lower Flammability Limit(FLL)": "5.400000E+00 % in Air",
    "Upper Flammability Limit(FLU)": "1.600000E+01 % in Air",
    "Flash Point (Open Cup Method)": "3.131500E+02 K",
    "Flash Point (Closed Cup Method)": "3.175945E+02 K",
    "Autoignition Temperature (AIGT)": "6.998167E+02 K",
    "NFPA Rating (Health)": "3",
    "NFPA Rating (Fire)": "2",
    "NFPA Rating (Safety)": "1",
    "Class": "Acids",
    "Subclass": "Aliphatic Acids",
    "SMILES": "CC(=O)O"
}