{
    "ID": "931",
    "Name": "PROPIONIC ACID",
    "Synonyms": "CARBOXYETHANE, ETHYLFORMIC ACID, LUPRISOL",
    "CAS No.": "79-09-4",
    "Formula": "C3H6O2",
    "Molecular Wt. (WT)": "7.40792E+01",
    "Normal Boiling Point Temp. (TB)": "4.14300E+02 K",
    "Freezing Point Temp. (TF)": "2.52400E+02 K",
    "Triple Point Temp. (TT)": "2.52650E+02 K",
    "Triple Point Press. (PT)": NaN,
    "Critical Temperature. (TC)": "6.04000E+02 K",
    "Critical Pressure (PC)": "4.53000E+03 kPa",
    "Critical Volume (VC)": "2.22000E-01 m^3/kg-mol",
    "Critical Compressibility (ZC)": "2.00252E-01",
    "Accentric Factor (ACCF)": "5.20000E-01",
    "Vapor Pressure": {
        "Equation Name": "KDB Correlation Equation",
        "Equation": "ln(Pvp) = A*ln(T) + B/T + C + D*T^2 where Pvp in kPa, T in K",
        "Coefficient A": "-8.903315E+00",
        "Coefficient B": "-8.375112E+03",
        "Coefficient C": "7.777671E+01",
        "Coefficient D": "4.159661E-06",
        "Coefficient E": NaN,
        "Coefficient F": NaN,
        "Coefficient G": NaN,
        "T range, from": "252.45 K",
        "T range, to": "604.00 K"
    },
    "Heat Capacity (Ideal Gas)": {
        "Equation Name": "Polynomial Equation",
        "Equation": "Cp = A + B*T + C*T^2 + D*T^3 + E*T^4  where Cp in kJ/kg-mol , T in K",
        "Coefficient A": "5.669000E+00",
        "Coefficient B": "3.689000E-01",
        "Coefficient C": "-2.865000E-04",
        "Coefficient D": "9.877E-08",
        "Coefficient E": "0",
        "Coefficient F": NaN,
        "Coefficient G": NaN,
        "T range, from": NaN,
        "T range, to": NaN
    },
    "Heat Capacity (Liquid)": NaN,
    "Viscosity (Gas, Low P)": NaN,
    "Viscosity (Liquid)": {
        "Equation Name": "Andrade Equation",
        "Equation": "ln (VISL) = A + B/ T  where T in K and VISL in cP.",
        "Coefficient A": "-4.116",
        "Coefficient B": "1232",
        "Coefficient C": "0",
        "Coefficient D": "0",
        "Coefficient E": NaN,
        "Coefficient F": NaN,
        "Coefficient G": NaN,
        "T range, from": "278.15 K",
        "T range, to": "423.15 K"
    },
    "Themal Conductivity (Gas, Low P)": NaN,
    "Themal Conductivity (Liquid)": NaN,
    "Surface Tension": NaN,
    "Partial Molar Volume (VOLP)": "7.498000E-02 m^3/kg-mol",
    "Solubility Parameters (SOLP)": "1.998232E+04 (J/cm^3)^0.5",
    "SRK accentric factor (WSRK)": NaN,
    "COSTALD Characteristic Volume (VSTAR)": NaN,
    "Rackett parameter (ZRA)": "2.500000E-01",
    "Aniline Point (ANP)": NaN,
    "H(formation,ideal gas)at 25 C": "-4.554000E+05 kJ/kg-mol",
    "G(formation,ideal gas) at 25 C": "-3.696000E+05 kJ/kg-mol",
    "Heat of Combustion, Gross form (HCB1)": NaN,
    "Heat of Combustion, Net form (HCB2)": NaN,
    "Van der Waals Volume (VDWV)": NaN,
    "Van der Waals Area (VDWA)": NaN,
    "UNIQUAC Ri Parameter (RI)": "2.876800E+00",
    "UNIQUAC Qi Parameter (QI)": "2.612000E+00",
    "Dipole Moment (DM)": "1.500000E+00 debye",
    "Radius of Gyration (GYRAD)": "3.050000E+00",
    "Liquid Density (DENL)": "1.340457E-02 g-mol/cm^3",
    "Temperature of DENL (TDENL)": "2.930000E+02 K",
    "Heat of Vaporizaiton (HVAP)": NaN,
    "Temperature of HVAP (THVAP)": NaN,
    "Surface Tension (SRF)": NaN,
    "Temperature of SRF (TSRF)": NaN,
    "Dielectric Constant (DIEL)": NaN,
    "Temperature of DIEL (TDIEL)": NaN,
    "Refractive Index (RFI)": NaN,
    "Temperature of RFI (TRFI)": NaN,
    "Lower Flammability Limit(FLL)": "2.900000E+00 % in Air",
    "Upper Flammability Limit(FLU)": "1.480000E+01 % in Air",
    "Flash Point (Open Cup Method)": "3.275945E+02 K",
    "Flash Point (Closed Cup Method)": "3.298167E+02 K",
    "Autoignition Temperature (AIGT)": "8.692612E+02 K",
    "NFPA Rating (Health)": "2",
    "NFPA Rating (Fire)": "2",
    "NFPA Rating (Safety)": NaN,
    "Class": "Acids",
    "Subclass": "Aliphatic Acids",
    "SMILES": "CCC(=O)O"
}