{
    "ID": "932",
    "Name": "N-BUTYRIC ACID",
    "Synonyms": "ETHYLACETIC ACID, PROPYLFORMIC ACID, BUTANIC ACID",
    "CAS No.": "107-92-6",
    "Formula": "C4H8O2",
    "Molecular Wt. (WT)": "8.81060E+01",
    "Normal Boiling Point Temp. (TB)": "4.36900E+02 K",
    "Freezing Point Temp. (TF)": "2.67400E+02 K",
    "Triple Point Temp. (TT)": "2.68030E+02 K",
    "Triple Point Press. (PT)": NaN,
    "Critical Temperature. (TC)": "6.24000E+02 K",
    "Critical Pressure (PC)": "4.03000E+03 kPa",
    "Critical Volume (VC)": "2.90000E-01 m^3/kg-mol",
    "Critical Compressibility (ZC)": "2.25259E-01",
    "Accentric Factor (ACCF)": "6.83000E-01",
    "Vapor Pressure": {
        "Equation Name": "KDB Correlation Equation",
        "Equation": "ln(Pvp) = A*ln(T) + B/T + C + D*T^2 where Pvp in kPa, T in K",
        "Coefficient A": "-1.196982E+01",
        "Coefficient B": "-9.902863E+03",
        "Coefficient C": "9.879106E+01",
        "Coefficient D": "6.225594E-06",
        "Coefficient E": NaN,
        "Coefficient F": NaN,
        "Coefficient G": NaN,
        "T range, from": "267.95 K",
        "T range, to": "628.00 K"
    },
    "Heat Capacity (Ideal Gas)": {
        "Equation Name": "Polynomial Equation",
        "Equation": "Cp = A + B*T + C*T^2 + D*T^3 + E*T^4  where Cp in kJ/kg-mol , T in K",
        "Coefficient A": "1.174000E+01",
        "Coefficient B": "4.137000E-01",
        "Coefficient C": "-2.430000E-04",
        "Coefficient D": "5.531E-08",
        "Coefficient E": "0",
        "Coefficient F": NaN,
        "Coefficient G": NaN,
        "T range, from": NaN,
        "T range, to": NaN
    },
    "Heat Capacity (Liquid)": NaN,
    "Viscosity (Gas, Low P)": NaN,
    "Viscosity (Liquid)": {
        "Equation Name": "Andrade Equation",
        "Equation": "ln (VISL) = A + B/ T  where T in K and VISL in cP.",
        "Coefficient A": "-4.592",
        "Coefficient B": "1475",
        "Coefficient C": "0",
        "Coefficient D": "0",
        "Coefficient E": NaN,
        "Coefficient F": NaN,
        "Coefficient G": NaN,
        "T range, from": "273.15 K",
        "T range, to": "433.15 K"
    },
    "Themal Conductivity (Gas, Low P)": NaN,
    "Themal Conductivity (Liquid)": NaN,
    "Surface Tension": NaN,
    "Partial Molar Volume (VOLP)": "9.243000E-02 m^3/kg-mol",
    "Solubility Parameters (SOLP)": "2.305054E+04 (J/cm^3)^0.5",
    "SRK accentric factor (WSRK)": NaN,
    "COSTALD Characteristic Volume (VSTAR)": NaN,
    "Rackett parameter (ZRA)": NaN,
    "Aniline Point (ANP)": NaN,
    "H(formation,ideal gas)at 25 C": "-4.762000E+05 kJ/kg-mol",
    "G(formation,ideal gas) at 25 C": NaN,
    "Heat of Combustion, Gross form (HCB1)": NaN,
    "Heat of Combustion, Net form (HCB2)": NaN,
    "Van der Waals Volume (VDWV)": NaN,
    "Van der Waals Area (VDWA)": NaN,
    "UNIQUAC Ri Parameter (RI)": "3.551200E+00",
    "UNIQUAC Qi Parameter (QI)": "3.152000E+00",
    "Dipole Moment (DM)": "1.500000E+00 debye",
    "Radius of Gyration (GYRAD)": NaN,
    "Liquid Density (DENL)": "1.087327E-02 g-mol/cm^3",
    "Temperature of DENL (TDENL)": "2.930000E+02 K",
    "Heat of Vaporizaiton (HVAP)": NaN,
    "Temperature of HVAP (THVAP)": NaN,
    "Surface Tension (SRF)": NaN,
    "Temperature of SRF (TSRF)": NaN,
    "Dielectric Constant (DIEL)": NaN,
    "Temperature of DIEL (TDIEL)": NaN,
    "Refractive Index (RFI)": NaN,
    "Temperature of RFI (TRFI)": NaN,
    "Lower Flammability Limit(FLL)": "2.190000E+00 % in Air",
    "Upper Flammability Limit(FLU)": "1.340000E+01 % in Air",
    "Flash Point (Open Cup Method)": "3.442611E+02 K",
    "Flash Point (Closed Cup Method)": "3.475945E+02 K",
    "Autoignition Temperature (AIGT)": "7.231500E+02 K",
    "NFPA Rating (Health)": "2",
    "NFPA Rating (Fire)": "2",
    "NFPA Rating (Safety)": NaN,
    "Class": "Acids",
    "Subclass": "Aliphatic Acids",
    "SMILES": "CCCC(=O)O"
}