{
    "ID": "933",
    "Name": "ISOBUTYRIC ACID",
    "Synonyms": "ALPHA-METHYLPROPIONIC ACID, DIMETHYLACETIC ACID, 2-METHYL-PROPANOIC ACID",
    "CAS No.": "79-31-2",
    "Formula": "C4H8O2",
    "Molecular Wt. (WT)": "8.81060E+01",
    "Normal Boiling Point Temp. (TB)": "4.27600E+02 K",
    "Freezing Point Temp. (TF)": "2.27000E+02 K",
    "Triple Point Temp. (TT)": NaN,
    "Triple Point Press. (PT)": NaN,
    "Critical Temperature. (TC)": "6.05000E+02 K",
    "Critical Pressure (PC)": "3.70000E+03 kPa",
    "Critical Volume (VC)": "2.92000E-01 m^3/kg-mol",
    "Critical Compressibility (ZC)": "2.14779E-01",
    "Accentric Factor (ACCF)": "6.23000E-01",
    "Vapor Pressure": {
        "Equation Name": "KDB Correlation Equation",
        "Equation": "ln(Pvp) = A*ln(T) + B/T + C + D*T^2 where Pvp in kPa, T in K",
        "Coefficient A": "-8.784984E-01",
        "Coefficient B": "-6.773344E+03",
        "Coefficient C": "2.665444E+01",
        "Coefficient D": "-4.522888E-06",
        "Coefficient E": NaN,
        "Coefficient F": NaN,
        "Coefficient G": NaN,
        "T range, from": "227.15 K",
        "T range, to": "609.15 K"
    },
    "Heat Capacity (Ideal Gas)": {
        "Equation Name": "Polynomial Equation",
        "Equation": "Cp = A + B*T + C*T^2 + D*T^3 + E*T^4  where Cp in kJ/kg-mol , T in K",
        "Coefficient A": "9.814000E+00",
        "Coefficient B": "4.668000E-01",
        "Coefficient C": "-3.720000E-04",
        "Coefficient D": "1.35E-07",
        "Coefficient E": "0",
        "Coefficient F": NaN,
        "Coefficient G": NaN,
        "T range, from": NaN,
        "T range, to": NaN
    },
    "Heat Capacity (Liquid)": NaN,
    "Viscosity (Gas, Low P)": NaN,
    "Viscosity (Liquid)": {
        "Equation Name": "Andrade Equation",
        "Equation": "ln (VISL) = A + B/ T  where T in K and VISL in cP.",
        "Coefficient A": "-4.355",
        "Coefficient B": "1355",
        "Coefficient C": "0",
        "Coefficient D": "0",
        "Coefficient E": NaN,
        "Coefficient F": NaN,
        "Coefficient G": NaN,
        "T range, from": "277.15 K",
        "T range, to": "423.15 K"
    },
    "Themal Conductivity (Gas, Low P)": NaN,
    "Themal Conductivity (Liquid)": NaN,
    "Surface Tension": NaN,
    "Partial Molar Volume (VOLP)": "9.344000E-02 m^3/kg-mol",
    "Solubility Parameters (SOLP)": "2.264145E+04 (J/cm^3)^0.5",
    "SRK accentric factor (WSRK)": NaN,
    "COSTALD Characteristic Volume (VSTAR)": NaN,
    "Rackett parameter (ZRA)": NaN,
    "Aniline Point (ANP)": NaN,
    "H(formation,ideal gas)at 25 C": "-4.842000E+05 kJ/kg-mol",
    "G(formation,ideal gas) at 25 C": NaN,
    "Heat of Combustion, Gross form (HCB1)": NaN,
    "Heat of Combustion, Net form (HCB2)": NaN,
    "Van der Waals Volume (VDWV)": NaN,
    "Van der Waals Area (VDWA)": NaN,
    "UNIQUAC Ri Parameter (RI)": "3.550400E+00",
    "UNIQUAC Qi Parameter (QI)": "3.148000E+00",
    "Dipole Moment (DM)": "1.300000E+00 debye",
    "Radius of Gyration (GYRAD)": NaN,
    "Liquid Density (DENL)": "1.098677E-02 g-mol/cm^3",
    "Temperature of DENL (TDENL)": "2.930000E+02 K",
    "Heat of Vaporizaiton (HVAP)": NaN,
    "Temperature of HVAP (THVAP)": NaN,
    "Surface Tension (SRF)": NaN,
    "Temperature of SRF (TSRF)": NaN,
    "Dielectric Constant (DIEL)": NaN,
    "Temperature of DIEL (TDIEL)": NaN,
    "Refractive Index (RFI)": NaN,
    "Temperature of RFI (TRFI)": NaN,
    "Lower Flammability Limit(FLL)": NaN,
    "Upper Flammability Limit(FLU)": NaN,
    "Flash Point (Open Cup Method)": NaN,
    "Flash Point (Closed Cup Method)": NaN,
    "Autoignition Temperature (AIGT)": NaN,
    "NFPA Rating (Health)": 1.0,
    "NFPA Rating (Fire)": 2.0,
    "NFPA Rating (Safety)": NaN,
    "Class": "Acids",
    "Subclass": "Aliphatic Acids",
    "SMILES": "CC(C)C(=O)O"
}