{
    "ID": "94",
    "Name": "2,2,3,3-TETRAMETHYLPENTANE",
    "Synonyms": NaN,
    "CAS No.": "7154-79-2",
    "Formula": "C9H20",
    "Molecular Wt. (WT)": "1.28257E+02",
    "Normal Boiling Point Temp. (TB)": "4.13440E+02 K",
    "Freezing Point Temp. (TF)": "2.63300E+02 K",
    "Triple Point Temp. (TT)": NaN,
    "Triple Point Press. (PT)": NaN,
    "Critical Temperature. (TC)": "6.07500E+02 K",
    "Critical Pressure (PC)": "2.74000E+03 kPa",
    "Critical Volume (VC)": NaN,
    "Critical Compressibility (ZC)": NaN,
    "Accentric Factor (ACCF)": "3.03000E-01",
    "Vapor Pressure": {
        "Equation Name": "KDB Correlation Equation",
        "Equation": "ln(Pvp) = A*ln(T) + B/T + C + D*T^2 where Pvp in kPa, T in K",
        "Coefficient A": "-9.603122E+00",
        "Coefficient B": "-7.545259E+03",
        "Coefficient C": "7.974216E+01",
        "Coefficient D": "5.748987E-06",
        "Coefficient E": NaN,
        "Coefficient F": NaN,
        "Coefficient G": NaN,
        "T range, from": "263.26 K",
        "T range, to": "610.85 K"
    },
    "Heat Capacity (Ideal Gas)": {
        "Equation Name": "Polynomial Equation",
        "Equation": "Cp = A + B*T + C*T^2 + D*T^3 + E*T^4  where Cp in kJ/kg-mol , T in K",
        "Coefficient A": "9.078159E+01",
        "Coefficient B": "1.123647E-01",
        "Coefficient C": "1.527263E-03",
        "Coefficient D": "-2.074223E-06",
        "Coefficient E": "8.257083E-10",
        "Coefficient F": NaN,
        "Coefficient G": NaN,
        "T range, from": NaN,
        "T range, to": NaN
    },
    "Heat Capacity (Liquid)": NaN,
    "Viscosity (Gas, Low P)": NaN,
    "Viscosity (Liquid)": NaN,
    "Themal Conductivity (Gas, Low P)": NaN,
    "Themal Conductivity (Liquid)": NaN,
    "Surface Tension": NaN,
    "Partial Molar Volume (VOLP)": NaN,
    "Solubility Parameters (SOLP)": "1.507316E+04 (J/cm^3)^0.5",
    "SRK accentric factor (WSRK)": NaN,
    "COSTALD Characteristic Volume (VSTAR)": NaN,
    "Rackett parameter (ZRA)": NaN,
    "Aniline Point (ANP)": "3.411500E+02 K",
    "H(formation,ideal gas)at 25 C": "-2.374000E+05 kJ/kg-mol",
    "G(formation,ideal gas) at 25 C": "3.433000E+04 kJ/kg-mol",
    "Heat of Combustion, Gross form (HCB1)": "6.121611E+06 kJ/kg-mol",
    "Heat of Combustion, Net form (HCB2)": "5.681496E+06 kJ/kg-mol",
    "Van der Waals Volume (VDWV)": NaN,
    "Van der Waals Area (VDWA)": NaN,
    "UNIQUAC Ri Parameter (RI)": NaN,
    "UNIQUAC Qi Parameter (QI)": NaN,
    "Dipole Moment (DM)": NaN,
    "Radius of Gyration (GYRAD)": NaN,
    "Liquid Density (DENL)": "5.902212E-03 g-mol/cm^3",
    "Temperature of DENL (TDENL)": "2.930000E+02 K",
    "Heat of Vaporizaiton (HVAP)": "3.527100E+04 kJ/kg-mol",
    "Temperature of HVAP (THVAP)": "4.134000E+02 K",
    "Surface Tension (SRF)": "2.294000E+01 dyn/cm",
    "Temperature of SRF (TSRF)": "2.982000E+02 K",
    "Dielectric Constant (DIEL)": NaN,
    "Temperature of DIEL (TDIEL)": NaN,
    "Refractive Index (RFI)": "1.421400E+00",
    "Temperature of RFI (TRFI)": "2.981500E+02 K",
    "Lower Flammability Limit(FLL)": NaN,
    "Upper Flammability Limit(FLU)": NaN,
    "Flash Point (Open Cup Method)": NaN,
    "Flash Point (Closed Cup Method)": NaN,
    "Autoignition Temperature (AIGT)": NaN,
    "NFPA Rating (Health)": NaN,
    "NFPA Rating (Fire)": 3.0,
    "NFPA Rating (Safety)": NaN,
    "Class": "Paraffinic Hydrocarbons",
    "Subclass": "Branched Alkanes",
    "SMILES": "CCC(C)(C)C(C)(C)C"
}