{
    "ID": "955",
    "Name": "BENZOIC ACID",
    "Synonyms": "BENZENECARBOXYLIC ACID, BENZENEFORMIC ACID, BENZOATE",
    "CAS No.": "65-85-0",
    "Formula": "C7H6O2",
    "Molecular Wt. (WT)": "1.22123E+02",
    "Normal Boiling Point Temp. (TB)": "5.23000E+02 K",
    "Freezing Point Temp. (TF)": "3.95600E+02 K",
    "Triple Point Temp. (TT)": NaN,
    "Triple Point Press. (PT)": NaN,
    "Critical Temperature. (TC)": "7.52000E+02 K",
    "Critical Pressure (PC)": "4.56000E+03 kPa",
    "Critical Volume (VC)": "3.41000E-01 m^3/kg-mol",
    "Critical Compressibility (ZC)": "2.48694E-01",
    "Accentric Factor (ACCF)": "6.20000E-01",
    "Vapor Pressure": {
        "Equation Name": "KDB Correlation Equation",
        "Equation": "ln(Pvp) = A*ln(T) + B/T + C + D*T^2 where Pvp in kPa, T in K",
        "Coefficient A": "1.478114E+01",
        "Coefficient B": "-4.453887E+03",
        "Coefficient C": "-7.468433E+01",
        "Coefficient D": "-1.719813E-05",
        "Coefficient E": NaN,
        "Coefficient F": NaN,
        "Coefficient G": NaN,
        "T range, from": "395.52 K",
        "T range, to": "560.15 K"
    },
    "Heat Capacity (Ideal Gas)": {
        "Equation Name": "Polynomial Equation",
        "Equation": "Cp = A + B*T + C*T^2 + D*T^3 + E*T^4  where Cp in kJ/kg-mol , T in K",
        "Coefficient A": "-5.129000E+01",
        "Coefficient B": "6.293000E-01",
        "Coefficient C": "-4.237000E-04",
        "Coefficient D": "1.062E-07",
        "Coefficient E": "0",
        "Coefficient F": NaN,
        "Coefficient G": NaN,
        "T range, from": NaN,
        "T range, to": NaN
    },
    "Heat Capacity (Liquid)": NaN,
    "Viscosity (Gas, Low P)": NaN,
    "Viscosity (Liquid)": {
        "Equation Name": "Andrade Equation",
        "Equation": "ln (VISL) = A + B/ T  where T in K and VISL in cP.",
        "Coefficient A": "-14.78",
        "Coefficient B": "6027",
        "Coefficient C": "0",
        "Coefficient D": "0",
        "Coefficient E": NaN,
        "Coefficient F": NaN,
        "Coefficient G": NaN,
        "T range, from": "395.15 K",
        "T range, to": "413.15 K"
    },
    "Themal Conductivity (Gas, Low P)": NaN,
    "Themal Conductivity (Liquid)": NaN,
    "Surface Tension": NaN,
    "Partial Molar Volume (VOLP)": "1.136000E-01 m^3/kg-mol",
    "Solubility Parameters (SOLP)": "2.347601E+04 (J/cm^3)^0.5",
    "SRK accentric factor (WSRK)": NaN,
    "COSTALD Characteristic Volume (VSTAR)": NaN,
    "Rackett parameter (ZRA)": NaN,
    "Aniline Point (ANP)": NaN,
    "H(formation,ideal gas)at 25 C": "-2.904000E+05 kJ/kg-mol",
    "G(formation,ideal gas) at 25 C": "-2.106000E+05 kJ/kg-mol",
    "Heat of Combustion, Gross form (HCB1)": NaN,
    "Heat of Combustion, Net form (HCB2)": NaN,
    "Van der Waals Volume (VDWV)": NaN,
    "Van der Waals Area (VDWA)": NaN,
    "UNIQUAC Ri Parameter (RI)": "4.323000E+00",
    "UNIQUAC Qi Parameter (QI)": "3.344000E+00",
    "Dipole Moment (DM)": "1.700000E+00 debye",
    "Radius of Gyration (GYRAD)": NaN,
    "Liquid Density (DENL)": "8.802586E-03 g-mol/cm^3",
    "Temperature of DENL (TDENL)": "4.030000E+02 K",
    "Heat of Vaporizaiton (HVAP)": "5.062600E+04 kJ/kg-mol",
    "Temperature of HVAP (THVAP)": "5.230000E+02 K",
    "Surface Tension (SRF)": NaN,
    "Temperature of SRF (TSRF)": NaN,
    "Dielectric Constant (DIEL)": NaN,
    "Temperature of DIEL (TDIEL)": NaN,
    "Refractive Index (RFI)": NaN,
    "Temperature of RFI (TRFI)": NaN,
    "Lower Flammability Limit(FLL)": NaN,
    "Upper Flammability Limit(FLU)": NaN,
    "Flash Point (Open Cup Method)": "3.942611E+02 K",
    "Flash Point (Closed Cup Method)": NaN,
    "Autoignition Temperature (AIGT)": "8.459278E+02 K",
    "NFPA Rating (Health)": "2",
    "NFPA Rating (Fire)": "1",
    "NFPA Rating (Safety)": NaN,
    "Class": "Acids",
    "Subclass": "Aromatic Acids",
    "SMILES": "C1=CC=C(C=C1)C(=O)O"
}