{
    "ID": "96",
    "Name": "2,2,4,4-TETRAMETHYLPENTANE",
    "Synonyms": "DI-TERT-BUTYLMETHANE",
    "CAS No.": "1070-87-7",
    "Formula": "C9H20",
    "Molecular Wt. (WT)": "1.28257E+02",
    "Normal Boiling Point Temp. (TB)": "3.95440E+02 K",
    "Freezing Point Temp. (TF)": "2.06610E+02 K",
    "Triple Point Temp. (TT)": NaN,
    "Triple Point Press. (PT)": NaN,
    "Critical Temperature. (TC)": "5.74600E+02 K",
    "Critical Pressure (PC)": "2.49000E+03 kPa",
    "Critical Volume (VC)": "5.04000E-01 m^3/kg-mol",
    "Critical Compressibility (ZC)": "2.62680E-01",
    "Accentric Factor (ACCF)": "3.12000E-01",
    "Vapor Pressure": {
        "Equation Name": "KDB Correlation Equation",
        "Equation": "ln(Pvp) = A*ln(T) + B/T + C + D*T^2 where Pvp in kPa, T in K",
        "Coefficient A": "-9.055935E+00",
        "Coefficient B": "-7.013218E+03",
        "Coefficient C": "7.557626E+01",
        "Coefficient D": "5.953328E-06",
        "Coefficient E": NaN,
        "Coefficient F": NaN,
        "Coefficient G": NaN,
        "T range, from": "206.95 K",
        "T range, to": "571.35 K"
    },
    "Heat Capacity (Ideal Gas)": {
        "Equation Name": "Polynomial Equation",
        "Equation": "Cp = A + B*T + C*T^2 + D*T^3 + E*T^4  where Cp in kJ/kg-mol , T in K",
        "Coefficient A": "-6.739999E+01",
        "Coefficient B": "1.168000E+00",
        "Coefficient C": "-8.612000E-04",
        "Coefficient D": "2.574E-07",
        "Coefficient E": "0",
        "Coefficient F": NaN,
        "Coefficient G": NaN,
        "T range, from": NaN,
        "T range, to": NaN
    },
    "Heat Capacity (Liquid)": NaN,
    "Viscosity (Gas, Low P)": NaN,
    "Viscosity (Liquid)": NaN,
    "Themal Conductivity (Gas, Low P)": NaN,
    "Themal Conductivity (Liquid)": NaN,
    "Surface Tension": NaN,
    "Partial Molar Volume (VOLP)": NaN,
    "Solubility Parameters (SOLP)": "1.411179E+04 (J/cm^3)^0.5",
    "SRK accentric factor (WSRK)": NaN,
    "COSTALD Characteristic Volume (VSTAR)": NaN,
    "Rackett parameter (ZRA)": NaN,
    "Aniline Point (ANP)": "3.481500E+02 K",
    "H(formation,ideal gas)at 25 C": "-2.421000E+05 kJ/kg-mol",
    "G(formation,ideal gas) at 25 C": "3.404000E+04 kJ/kg-mol",
    "Heat of Combustion, Gross form (HCB1)": "6.119895E+06 kJ/kg-mol",
    "Heat of Combustion, Net form (HCB2)": "5.679780E+06 kJ/kg-mol",
    "Van der Waals Volume (VDWV)": NaN,
    "Van der Waals Area (VDWA)": NaN,
    "UNIQUAC Ri Parameter (RI)": NaN,
    "UNIQUAC Qi Parameter (QI)": NaN,
    "Dipole Moment (DM)": NaN,
    "Radius of Gyration (GYRAD)": NaN,
    "Liquid Density (DENL)": "5.605931E-03 g-mol/cm^3",
    "Temperature of DENL (TDENL)": "2.930000E+02 K",
    "Heat of Vaporizaiton (HVAP)": "3.284400E+04 kJ/kg-mol",
    "Temperature of HVAP (THVAP)": "3.954000E+02 K",
    "Surface Tension (SRF)": "1.992000E+01 dyn/cm",
    "Temperature of SRF (TSRF)": "2.982000E+02 K",
    "Dielectric Constant (DIEL)": NaN,
    "Temperature of DIEL (TDIEL)": NaN,
    "Refractive Index (RFI)": "1.404590E+00",
    "Temperature of RFI (TRFI)": "2.981500E+02 K",
    "Lower Flammability Limit(FLL)": NaN,
    "Upper Flammability Limit(FLU)": NaN,
    "Flash Point (Open Cup Method)": NaN,
    "Flash Point (Closed Cup Method)": NaN,
    "Autoignition Temperature (AIGT)": NaN,
    "NFPA Rating (Health)": NaN,
    "NFPA Rating (Fire)": NaN,
    "NFPA Rating (Safety)": NaN,
    "Class": "Paraffinic Hydrocarbons",
    "Subclass": "Branched Alkanes",
    "SMILES": "CC(C)(C)CC(C)(C)C"
}