{
    "ID": "972",
    "Name": "ACRYLIC ACID",
    "Synonyms": "ACROLEIC ACID, ETHYLENECARBOXYLIC ACID, PROPENOIC ACID",
    "CAS No.": "79-10-7",
    "Formula": "C3H4O2",
    "Molecular Wt. (WT)": "7.20634E+01",
    "Normal Boiling Point Temp. (TB)": "4.14000E+02 K",
    "Freezing Point Temp. (TF)": "2.85000E+02 K",
    "Triple Point Temp. (TT)": NaN,
    "Triple Point Press. (PT)": NaN,
    "Critical Temperature. (TC)": "6.15000E+02 K",
    "Critical Pressure (PC)": "5.67000E+03 kPa",
    "Critical Volume (VC)": "2.10000E-01 m^3/kg-mol",
    "Critical Compressibility (ZC)": "2.32858E-01",
    "Accentric Factor (ACCF)": "5.60000E-01",
    "Vapor Pressure": {
        "Equation Name": "KDB Correlation Equation",
        "Equation": "ln(Pvp) = A*ln(T) + B/T + C + D*T^2 where Pvp in kPa, T in K",
        "Coefficient A": "-5.668951E+00",
        "Coefficient B": "-7.357286E+03",
        "Coefficient C": "5.618425E+01",
        "Coefficient D": "2.193179E-06",
        "Coefficient E": NaN,
        "Coefficient F": NaN,
        "Coefficient G": NaN,
        "T range, from": "286.65 K",
        "T range, to": "615.00 K"
    },
    "Heat Capacity (Ideal Gas)": {
        "Equation Name": "Polynomial Equation",
        "Equation": "Cp = A + B*T + C*T^2 + D*T^3 + E*T^4  where Cp in kJ/kg-mol , T in K",
        "Coefficient A": "1.742000E+00",
        "Coefficient B": "3.191000E-01",
        "Coefficient C": "-2.352000E-04",
        "Coefficient D": "6.975E-08",
        "Coefficient E": "0",
        "Coefficient F": NaN,
        "Coefficient G": NaN,
        "T range, from": NaN,
        "T range, to": NaN
    },
    "Heat Capacity (Liquid)": NaN,
    "Viscosity (Gas, Low P)": NaN,
    "Viscosity (Liquid)": {
        "Equation Name": "Power Law",
        "Equation": "VISL = A *T^B where T in K and VISL in cP.",
        "Coefficient A": "1.51E+10",
        "Coefficient B": "-4.089",
        "Coefficient C": "0",
        "Coefficient D": "0",
        "Coefficient E": NaN,
        "Coefficient F": NaN,
        "Coefficient G": NaN,
        "T range, from": "293.15 K",
        "T range, to": "313.15 K"
    },
    "Themal Conductivity (Gas, Low P)": NaN,
    "Themal Conductivity (Liquid)": NaN,
    "Surface Tension": NaN,
    "Partial Molar Volume (VOLP)": "6.856000E-02 m^3/kg-mol",
    "Solubility Parameters (SOLP)": "1.834593E+04 (J/cm^3)^0.5",
    "SRK accentric factor (WSRK)": NaN,
    "COSTALD Characteristic Volume (VSTAR)": NaN,
    "Rackett parameter (ZRA)": NaN,
    "Aniline Point (ANP)": NaN,
    "H(formation,ideal gas)at 25 C": "-3.365000E+05 kJ/kg-mol",
    "G(formation,ideal gas) at 25 C": "-2.863000E+05 kJ/kg-mol",
    "Heat of Combustion, Gross form (HCB1)": NaN,
    "Heat of Combustion, Net form (HCB2)": NaN,
    "Van der Waals Volume (VDWV)": NaN,
    "Van der Waals Area (VDWA)": NaN,
    "UNIQUAC Ri Parameter (RI)": 2.6467,
    "UNIQUAC Qi Parameter (QI)": 2.4,
    "Dipole Moment (DM)": NaN,
    "Radius of Gyration (GYRAD)": NaN,
    "Liquid Density (DENL)": "1.458438E-02 g-mol/cm^3",
    "Temperature of DENL (TDENL)": "2.930000E+02 K",
    "Heat of Vaporizaiton (HVAP)": "4.602400E+04 kJ/kg-mol",
    "Temperature of HVAP (THVAP)": "4.140000E+02 K",
    "Surface Tension (SRF)": NaN,
    "Temperature of SRF (TSRF)": NaN,
    "Dielectric Constant (DIEL)": NaN,
    "Temperature of DIEL (TDIEL)": NaN,
    "Refractive Index (RFI)": NaN,
    "Temperature of RFI (TRFI)": NaN,
    "Lower Flammability Limit(FLL)": "2.400000E+00 % in Air",
    "Upper Flammability Limit(FLU)": NaN,
    "Flash Point (Open Cup Method)": NaN,
    "Flash Point (Closed Cup Method)": "3.209278E+02 K",
    "Autoignition Temperature (AIGT)": "4.631500E+02 K",
    "NFPA Rating (Health)": "3",
    "NFPA Rating (Fire)": "2",
    "NFPA Rating (Safety)": "2",
    "Class": "Acids",
    "Subclass": "Unsaturated or Cyclic Acids",
    "SMILES": "C=CC(=O)O"
}