{
    "ID": "989",
    "Name": "ACETIC ANHYDRIDE",
    "Synonyms": "ACETIC OXIDE, ACETYL ANHYDRIDE, ACETYL ETHER",
    "CAS No.": "108-24-7",
    "Formula": "C4H6O3",
    "Molecular Wt. (WT)": "1.02090E+02",
    "Normal Boiling Point Temp. (TB)": "4.12700E+02 K",
    "Freezing Point Temp. (TF)": "2.00000E+02 K",
    "Triple Point Temp. (TT)": NaN,
    "Triple Point Press. (PT)": NaN,
    "Critical Temperature. (TC)": "6.06000E+02 K",
    "Critical Pressure (PC)": "4.00000E+03 kPa",
    "Critical Volume (VC)": NaN,
    "Critical Compressibility (ZC)": NaN,
    "Accentric Factor (ACCF)": "9.08000E-01",
    "Vapor Pressure": {
        "Equation Name": "KDB Correlation Equation",
        "Equation": "ln(Pvp) = A*ln(T) + B/T + C + D*T^2 where Pvp in kPa, T in K",
        "Coefficient A": "-2.370234E+01",
        "Coefficient B": "-1.128279E+04",
        "Coefficient C": "1.706065E+02",
        "Coefficient D": "2.120430E-05",
        "Coefficient E": NaN,
        "Coefficient F": NaN,
        "Coefficient G": NaN,
        "T range, from": "200.15 K",
        "T range, to": "569.00 K"
    },
    "Heat Capacity (Ideal Gas)": {
        "Equation Name": "Polynomial Equation",
        "Equation": "Cp = A + B*T + C*T^2 + D*T^3 + E*T^4  where Cp in kJ/kg-mol , T in K",
        "Coefficient A": "-2.313000E+01",
        "Coefficient B": "5.087000E-01",
        "Coefficient C": "-3.580000E-04",
        "Coefficient D": "9.835E-08",
        "Coefficient E": "0",
        "Coefficient F": NaN,
        "Coefficient G": NaN,
        "T range, from": NaN,
        "T range, to": NaN
    },
    "Heat Capacity (Liquid)": NaN,
    "Viscosity (Gas, Low P)": NaN,
    "Viscosity (Liquid)": {
        "Equation Name": "Andrade Equation",
        "Equation": "ln (VISL) = A + B/ T  where T in K and VISL in cP.",
        "Coefficient A": "-3.173",
        "Coefficient B": "905.4",
        "Coefficient C": "0",
        "Coefficient D": "0",
        "Coefficient E": NaN,
        "Coefficient F": NaN,
        "Coefficient G": NaN,
        "T range, from": "273.15 K",
        "T range, to": "373.15 K"
    },
    "Themal Conductivity (Gas, Low P)": NaN,
    "Themal Conductivity (Liquid)": NaN,
    "Surface Tension": NaN,
    "Partial Molar Volume (VOLP)": "9.496000E-02 m^3/kg-mol",
    "Solubility Parameters (SOLP)": "1.838480E+04 (J/cm^3)^0.5",
    "SRK accentric factor (WSRK)": NaN,
    "COSTALD Characteristic Volume (VSTAR)": NaN,
    "Rackett parameter (ZRA)": NaN,
    "Aniline Point (ANP)": NaN,
    "H(formation,ideal gas)at 25 C": "-5.761000E+05 kJ/kg-mol",
    "G(formation,ideal gas) at 25 C": "-4.770000E+05 kJ/kg-mol",
    "Heat of Combustion, Gross form (HCB1)": NaN,
    "Heat of Combustion, Net form (HCB2)": NaN,
    "Van der Waals Volume (VDWV)": NaN,
    "Van der Waals Area (VDWA)": NaN,
    "UNIQUAC Ri Parameter (RI)": "3.575500E+00",
    "UNIQUAC Qi Parameter (QI)": "3.216000E+00",
    "Dipole Moment (DM)": "3.000000E+00 debye",
    "Radius of Gyration (GYRAD)": NaN,
    "Liquid Density (DENL)": "1.064751E-02 g-mol/cm^3",
    "Temperature of DENL (TDENL)": "2.930000E+02 K",
    "Heat of Vaporizaiton (HVAP)": "4.121200E+04 kJ/kg-mol",
    "Temperature of HVAP (THVAP)": "4.096000E+02 K",
    "Surface Tension (SRF)": "3.265000E+01 dyn/cm",
    "Temperature of SRF (TSRF)": "2.932000E+02 K",
    "Dielectric Constant (DIEL)": NaN,
    "Temperature of DIEL (TDIEL)": NaN,
    "Refractive Index (RFI)": NaN,
    "Temperature of RFI (TRFI)": NaN,
    "Lower Flammability Limit(FLL)": "2.700000E+00 % in Air",
    "Upper Flammability Limit(FLU)": "1.000000E+01 % in Air",
    "Flash Point (Open Cup Method)": "3.220389E+02 K",
    "Flash Point (Closed Cup Method)": "3.309278E+02 K",
    "Autoignition Temperature (AIGT)": "5.887056E+02 K",
    "NFPA Rating (Health)": "2",
    "NFPA Rating (Fire)": "2",
    "NFPA Rating (Safety)": "1",
    "Class": "Acids",
    "Subclass": "Anhydrides",
    "SMILES": "CC(=O)OC(=O)C"
}