{
    "ID": "996",
    "Name": "DIMETHYL ETHER",
    "Synonyms": "METHYL ETHER, OXYBIS-METHANE, DIMETHYL OXIDE",
    "CAS No.": "115-10-6",
    "Formula": "C2H6O",
    "Molecular Wt. (WT)": "4.60688E+01",
    "Normal Boiling Point Temp. (TB)": "2.48300E+02 K",
    "Freezing Point Temp. (TF)": "1.31600E+02 K",
    "Triple Point Temp. (TT)": NaN,
    "Triple Point Press. (PT)": NaN,
    "Critical Temperature. (TC)": "4.00000E+02 K",
    "Critical Pressure (PC)": "5.37000E+03 kPa",
    "Critical Volume (VC)": "1.90000E-01 m^3/kg-mol",
    "Critical Compressibility (ZC)": "3.06783E-01",
    "Accentric Factor (ACCF)": "2.00000E-01",
    "Vapor Pressure": {
        "Equation Name": "KDB Correlation Equation",
        "Equation": "ln(Pvp) = A*ln(T) + B/T + C + D*T^2 where Pvp in kPa, T in K",
        "Coefficient A": "-4.793276E+00",
        "Coefficient B": "-3.695179E+03",
        "Coefficient C": "4.556573E+01",
        "Coefficient D": "5.946616E-06",
        "Coefficient E": NaN,
        "Coefficient F": NaN,
        "Coefficient G": NaN,
        "T range, from": "131.65 K",
        "T range, to": "400.10 K"
    },
    "Heat Capacity (Ideal Gas)": {
        "Equation Name": "Polynomial Equation",
        "Equation": "Cp = A + B*T + C*T^2 + D*T^3 + E*T^4  where Cp in kJ/kg-mol , T in K",
        "Coefficient A": "1.702000E+01",
        "Coefficient B": "1.791000E-01",
        "Coefficient C": "-5.234000E-05",
        "Coefficient D": "-1.918E-09",
        "Coefficient E": "0",
        "Coefficient F": NaN,
        "Coefficient G": NaN,
        "T range, from": NaN,
        "T range, to": NaN
    },
    "Heat Capacity (Liquid)": NaN,
    "Viscosity (Gas, Low P)": NaN,
    "Viscosity (Liquid)": NaN,
    "Themal Conductivity (Gas, Low P)": NaN,
    "Themal Conductivity (Liquid)": NaN,
    "Surface Tension": NaN,
    "Partial Molar Volume (VOLP)": NaN,
    "Solubility Parameters (SOLP)": "1.517544E+04 (J/cm^3)^0.5",
    "SRK accentric factor (WSRK)": "1.972000E-01",
    "COSTALD Characteristic Volume (VSTAR)": "1.692000E-01 m^3/kg-mol",
    "Rackett parameter (ZRA)": "2.742000E-01",
    "Aniline Point (ANP)": NaN,
    "H(formation,ideal gas)at 25 C": "-1.842000E+05 kJ/kg-mol",
    "G(formation,ideal gas) at 25 C": "-1.130000E+05 kJ/kg-mol",
    "Heat of Combustion, Gross form (HCB1)": NaN,
    "Heat of Combustion, Net form (HCB2)": NaN,
    "Van der Waals Volume (VDWV)": NaN,
    "Van der Waals Area (VDWA)": NaN,
    "UNIQUAC Ri Parameter (RI)": NaN,
    "UNIQUAC Qi Parameter (QI)": NaN,
    "Dipole Moment (DM)": "1.300000E+00 debye",
    "Radius of Gyration (GYRAD)": NaN,
    "Liquid Density (DENL)": "1.447834E-02 g-mol/cm^3",
    "Temperature of DENL (TDENL)": "2.930000E+02 K",
    "Heat of Vaporizaiton (HVAP)": "2.150600E+04 kJ/kg-mol",
    "Temperature of HVAP (THVAP)": "2.492000E+02 K",
    "Surface Tension (SRF)": "2.100000E+01 dyn/cm",
    "Temperature of SRF (TSRF)": "2.332000E+02 K",
    "Dielectric Constant (DIEL)": NaN,
    "Temperature of DIEL (TDIEL)": NaN,
    "Refractive Index (RFI)": NaN,
    "Temperature of RFI (TRFI)": NaN,
    "Lower Flammability Limit(FLL)": "2.000000E+00 % in Air",
    "Upper Flammability Limit(FLU)": "5.000000E+01 % in Air",
    "Flash Point (Open Cup Method)": NaN,
    "Flash Point (Closed Cup Method)": NaN,
    "Autoignition Temperature (AIGT)": "6.231500E+02 K",
    "NFPA Rating (Health)": "2",
    "NFPA Rating (Fire)": "4",
    "NFPA Rating (Safety)": NaN,
    "Class": "Ethers",
    "Subclass": "Aliphatic Ethers",
    "SMILES": "COC"
}