{
    "ID": "998",
    "Name": "METHYL ETHYL ETHER",
    "Synonyms": "ETHOXY METHANE, METHOXYETHANE, ETHYL METHYL ETHER",
    "CAS No.": "540-67-0",
    "Formula": "C3H8O",
    "Molecular Wt. (WT)": "6.00956E+01",
    "Normal Boiling Point Temp. (TB)": "2.80600E+02 K",
    "Freezing Point Temp. (TF)": "1.60000E+02 K",
    "Triple Point Temp. (TT)": NaN,
    "Triple Point Press. (PT)": NaN,
    "Critical Temperature. (TC)": "4.37800E+02 K",
    "Critical Pressure (PC)": "4.40000E+03 kPa",
    "Critical Volume (VC)": "2.21000E-01 m^3/kg-mol",
    "Critical Compressibility (ZC)": "2.67136E-01",
    "Accentric Factor (ACCF)": "2.44000E-01",
    "Vapor Pressure": {
        "Equation Name": "KDB Correlation Equation",
        "Equation": "ln(Pvp) = A*ln(T) + B/T + C + D*T^2 where Pvp in kPa, T in K",
        "Coefficient A": "-3.589749E+01",
        "Coefficient B": "-1.128182E+04",
        "Coefficient C": "2.434881E+02",
        "Coefficient D": "4.719275E-05",
        "Coefficient E": NaN,
        "Coefficient F": NaN,
        "Coefficient G": NaN,
        "T range, from": "160.00 K",
        "T range, to": "437.80 K"
    },
    "Heat Capacity (Ideal Gas)": {
        "Equation Name": "Polynomial Equation",
        "Equation": "Cp = A + B*T + C*T^2 + D*T^3 + E*T^4  where Cp in kJ/kg-mol , T in K",
        "Coefficient A": "3.327973E+01",
        "Coefficient B": "1.898752E-01",
        "Coefficient C": "7.348526E-05",
        "Coefficient D": "-1.481139E-07",
        "Coefficient E": "4.897129E-11",
        "Coefficient F": NaN,
        "Coefficient G": NaN,
        "T range, from": NaN,
        "T range, to": NaN
    },
    "Heat Capacity (Liquid)": NaN,
    "Viscosity (Gas, Low P)": NaN,
    "Viscosity (Liquid)": NaN,
    "Themal Conductivity (Gas, Low P)": NaN,
    "Themal Conductivity (Liquid)": NaN,
    "Surface Tension": NaN,
    "Partial Molar Volume (VOLP)": NaN,
    "Solubility Parameters (SOLP)": "1.513657E+04 (J/cm^3)^0.5",
    "SRK accentric factor (WSRK)": NaN,
    "COSTALD Characteristic Volume (VSTAR)": NaN,
    "Rackett parameter (ZRA)": NaN,
    "Aniline Point (ANP)": NaN,
    "H(formation,ideal gas)at 25 C": "-2.166000E+05 kJ/kg-mol",
    "G(formation,ideal gas) at 25 C": "-1.177000E+05 kJ/kg-mol",
    "Heat of Combustion, Gross form (HCB1)": NaN,
    "Heat of Combustion, Net form (HCB2)": NaN,
    "Van der Waals Volume (VDWV)": NaN,
    "Van der Waals Area (VDWA)": NaN,
    "UNIQUAC Ri Parameter (RI)": NaN,
    "UNIQUAC Qi Parameter (QI)": NaN,
    "Dipole Moment (DM)": "1.200000E+00 debye",
    "Radius of Gyration (GYRAD)": NaN,
    "Liquid Density (DENL)": "1.164811E-02 g-mol/cm^3",
    "Temperature of DENL (TDENL)": "2.930000E+02 K",
    "Heat of Vaporizaiton (HVAP)": "2.468600E+04 kJ/kg-mol",
    "Temperature of HVAP (THVAP)": "2.808000E+02 K",
    "Surface Tension (SRF)": "1.527000E+01 dyn/cm",
    "Temperature of SRF (TSRF)": "2.982000E+02 K",
    "Dielectric Constant (DIEL)": NaN,
    "Temperature of DIEL (TDIEL)": NaN,
    "Refractive Index (RFI)": NaN,
    "Temperature of RFI (TRFI)": NaN,
    "Lower Flammability Limit(FLL)": NaN,
    "Upper Flammability Limit(FLU)": NaN,
    "Flash Point (Open Cup Method)": NaN,
    "Flash Point (Closed Cup Method)": NaN,
    "Autoignition Temperature (AIGT)": NaN,
    "NFPA Rating (Health)": 2.0,
    "NFPA Rating (Fire)": 4.0,
    "NFPA Rating (Safety)": NaN,
    "Class": "Ethers",
    "Subclass": "Aliphatic Ethers",
    "SMILES": "CCOC"
}